V -t * -v 1.0a5 -a 0
A -t * -n 1 -p 0 -o 0x7fffffff -c 30 -a 1
A -t * -h 1 -m 1073741823 -s 0
n -t * -a 0 -s 0 -S UP -v circle -c black -i black
n -t * -a 1 -s 1 -S UP -v circle -c black -i black
l -t * -s 0 -d 1 -S UP -r 10000000 -D 0.021999999999999999 -c black -o right
+ -t 0.2 -s 0 -d 1 -p tcp -e 40 -c 0 -i 0 -a 0 -x {0.0 1.0 0 ------- null}
- -t 0.2 -s 0 -d 1 -p tcp -e 40 -c 0 -i 0 -a 0 -x {0.0 1.0 0 ------- null}
h -t 0.2 -s 0 -d 1 -p tcp -e 40 -c 0 -i 0 -a 0 -x {0.0 1.0 -1 ------- null}
r -t 0.222032 -s 0 -d 1 -p tcp -e 40 -c 0 -i 0 -a 0 -x {0.0 1.0 0 ------- null}
+ -t 0.222032 -s 1 -d 0 -p ack -e 40 -c 0 -i 1 -a 0 -x {1.0 0.0 0 ------- null}
- -t 0.222032 -s 1 -d 0 -p ack -e 40 -c 0 -i 1 -a 0 -x {1.0 0.0 0 ------- null}
h -t 0.222032 -s 1 -d 0 -p ack -e 40 -c 0 -i 1 -a 0 -x {1.0 0.0 -1 ------- null}
r -t 0.244064 -s 1 -d 0 -p ack -e 40 -c 0 -i 1 -a 0 -x {1.0 0.0 0 ------- null}
+ -t 0.244064 -s 0 -d 1 -p tcp -e 1040 -c 0 -i 2 -a 0 -x {0.0 1.0 1 ------- null}
- -t 0.244064 -s 0 -d 1 -p tcp -e 1040 -c 0 -i 2 -a 0 -x {0.0 1.0 1 ------- null}
h -t 0.244064 -s 0 -d 1 -p tcp -e 1040 -c 0 -i 2 -a 0 -x {0.0 1.0 -1 ------- null}
+ -t 0.244064 -s 0 -d 1 -p tcp -e 1040 -c 0 -i 3 -a 0 -x {0.0 1.0 2 ------- null}
- -t 0.244896 -s 0 -d 1 -p tcp -e 1040 -c 0 -i 3 -a 0 -x {0.0 1.0 2 ------- null}
h -t 0.244896 -s 0 -d 1 -p tcp -e 1040 -c 0 -i 3 -a 0 -x {0.0 1.0 -1 ------- null}
r -t 0.266896 -s 0 -d 1 -p tcp -e 1040 -c 0 -i 2 -a 0 -x {0.0 1.0 1 ------- null}
+ -t 0.266896 -s 1 -d 0 -p ack -e 40 -c 0 -i 4 -a 0 -x {1.0 0.0 1 ------- null}
- -t 0.266896 -s 1 -d 0 -p ack -e 40 -c 0 -i 4 -a 0 -x {1.0 0.0 1 ------- null}
h -t 0.266896 -s 1 -d 0 -p ack -e 40 -c 0 -i 4 -a 0 -x {1.0 0.0 -1 ------- null}
r -t 0.267728 -s 0 -d 1 -p tcp -e 1040 -c 0 -i 3 -a 0 -x {0.0 1.0 2 ------- null}
+ -t 0.267728 -s 1 -d 0 -p ack -e 40 -c 0 -i 5 -a 0 -x {1.0 0.0 2 ------- null}
- -t 0.267728 -s 1 -d 0 -p ack -e 40 -c 0 -i 5 -a 0 -x {1.0 0.0 2 ------- null}
h -t 0.267728 -s 1 -d 0 -p ack -e 40 -c 0 -i 5 -a 0 -x {1.0 0.0 -1 ------- null}
r -t 0.288928 -s 1 -d 0 -p ack -e 40 -c 0 -i 4 -a 0 -x {1.0 0.0 1 ------- null}
+ -t 0.288928 -s 0 -d 1 -p tcp -e 1040 -c 0 -i 6 -a 0 -x {0.0 1.0 3 ------- null}
- -t 0.288928 -s 0 -d 1 -p tcp -e 1040 -c 0 -i 6 -a 0 -x {0.0 1.0 3 ------- null}
h -t 0.288928 -s 0 -d 1 -p tcp -e 1040 -c 0 -i 6 -a 0 -x {0.0 1.0 -1 ------- null}
+ -t 0.288928 -s 0 -d 1 -p tcp -e 1040 -c 0 -i 7 -a 0 -x {0.0 1.0 4 ------- null}
r -t 0.28976 -s 1 -d 0 -p ack -e 40 -c 0 -i 5 -a 0 -x {1.0 0.0 2 ------- null}
+ -t 0.28976 -s 0 -d 1 -p tcp -e 1040 -c 0 -i 8 -a 0 -x {0.0 1.0 5 ------- null}
+ -t 0.28976 -s 0 -d 1 -p tcp -e 1040 -c 0 -i 9 -a 0 -x {0.0 1.0 6 ------- null}
- -t 0.28976 -s 0 -d 1 -p tcp -e 1040 -c 0 -i 7 -a 0 -x {0.0 1.0 4 ------- null}
h -t 0.28976 -s 0 -d 1 -p tcp -e 1040 -c 0 -i 7 -a 0 -x {0.0 1.0 -1 ------- null}
- -t 0.290592 -s 0 -d 1 -p tcp -e 1040 -c 0 -i 8 -a 0 -x {0.0 1.0 5 ------- null}
h -t 0.290592 -s 0 -d 1 -p tcp -e 1040 -c 0 -i 8 -a 0 -x {0.0 1.0 -1 ------- null}
- -t 0.291424 -s 0 -d 1 -p tcp -e 1040 -c 0 -i 9 -a 0 -x {0.0 1.0 6 ------- null}
h -t 0.291424 -s 0 -d 1 -p tcp -e 1040 -c 0 -i 9 -a 0 -x {0.0 1.0 -1 ------- null}
r -t 0.31176 -s 0 -d 1 -p tcp -e 1040 -c 0 -i 6 -a 0 -x {0.0 1.0 3 ------- null}
+ -t 0.31176 -s 1 -d 0 -p ack -e 40 -c 0 -i 10 -a 0 -x {1.0 0.0 3 ------- null}
- -t 0.31176 -s 1 -d 0 -p ack -e 40 -c 0 -i 10 -a 0 -x {1.0 0.0 3 ------- null}
h -t 0.31176 -s 1 -d 0 -p ack -e 40 -c 0 -i 10 -a 0 -x {1.0 0.0 -1 ------- null}
r -t 0.312592 -s 0 -d 1 -p tcp -e 1040 -c 0 -i 7 -a 0 -x {0.0 1.0 4 ------- null}
+ -t 0.312592 -s 1 -d 0 -p ack -e 40 -c 0 -i 11 -a 0 -x {1.0 0.0 4 ------- null}
- -t 0.312592 -s 1 -d 0 -p ack -e 40 -c 0 -i 11 -a 0 -x {1.0 0.0 4 ------- null}
h -t 0.312592 -s 1 -d 0 -p ack -e 40 -c 0 -i 11 -a 0 -x {1.0 0.0 -1 ------- null}
r -t 0.313424 -s 0 -d 1 -p tcp -e 1040 -c 0 -i 8 -a 0 -x {0.0 1.0 5 ------- null}
+ -t 0.313424 -s 1 -d 0 -p ack -e 40 -c 0 -i 12 -a 0 -x {1.0 0.0 5 ------- null}
- -t 0.313424 -s 1 -d 0 -p ack -e 40 -c 0 -i 12 -a 0 -x {1.0 0.0 5 ------- null}
h -t 0.313424 -s 1 -d 0 -p ack -e 40 -c 0 -i 12 -a 0 -x {1.0 0.0 -1 ------- null}
r -t 0.314256 -s 0 -d 1 -p tcp -e 1040 -c 0 -i 9 -a 0 -x {0.0 1.0 6 ------- null}
+ -t 0.314256 -s 1 -d 0 -p ack -e 40 -c 0 -i 13 -a 0 -x {1.0 0.0 6 ------- null}
- -t 0.314256 -s 1 -d 0 -p ack -e 40 -c 0 -i 13 -a 0 -x {1.0 0.0 6 ------- null}
h -t 0.314256 -s 1 -d 0 -p ack -e 40 -c 0 -i 13 -a 0 -x {1.0 0.0 -1 ------- null}
r -t 0.333792 -s 1 -d 0 -p ack -e 40 -c 0 -i 10 -a 0 -x {1.0 0.0 3 ------- null}
+ -t 0.333792 -s 0 -d 1 -p tcp -e 1040 -c 0 -i 14 -a 0 -x {0.0 1.0 7 ------- null}
- -t 0.333792 -s 0 -d 1 -p tcp -e 1040 -c 0 -i 14 -a 0 -x {0.0 1.0 7 ------- null}
h -t 0.333792 -s 0 -d 1 -p tcp -e 1040 -c 0 -i 14 -a 0 -x {0.0 1.0 -1 ------- null}
+ -t 0.333792 -s 0 -d 1 -p tcp -e 1040 -c 0 -i 15 -a 0 -x {0.0 1.0 8 ------- null}
r -t 0.334624 -s 1 -d 0 -p ack -e 40 -c 0 -i 11 -a 0 -x {1.0 0.0 4 ------- null}
+ -t 0.334624 -s 0 -d 1 -p tcp -e 1040 -c 0 -i 16 -a 0 -x {0.0 1.0 9 ------- null}
+ -t 0.334624 -s 0 -d 1 -p tcp -e 1040 -c 0 -i 17 -a 0 -x {0.0 1.0 10 ------- null}
- -t 0.334624 -s 0 -d 1 -p tcp -e 1040 -c 0 -i 15 -a 0 -x {0.0 1.0 8 ------- null}
h -t 0.334624 -s 0 -d 1 -p tcp -e 1040 -c 0 -i 15 -a 0 -x {0.0 1.0 -1 ------- null}
r -t 0.335456 -s 1 -d 0 -p ack -e 40 -c 0 -i 12 -a 0 -x {1.0 0.0 5 ------- null}
+ -t 0.335456 -s 0 -d 1 -p tcp -e 1040 -c 0 -i 18 -a 0 -x {0.0 1.0 11 ------- null}
+ -t 0.335456 -s 0 -d 1 -p tcp -e 1040 -c 0 -i 19 -a 0 -x {0.0 1.0 12 ------- null}
- -t 0.335456 -s 0 -d 1 -p tcp -e 1040 -c 0 -i 16 -a 0 -x {0.0 1.0 9 ------- null}
h -t 0.335456 -s 0 -d 1 -p tcp -e 1040 -c 0 -i 16 -a 0 -x {0.0 1.0 -1 ------- null}
r -t 0.336288 -s 1 -d 0 -p ack -e 40 -c 0 -i 13 -a 0 -x {1.0 0.0 6 ------- null}
+ -t 0.336288 -s 0 -d 1 -p tcp -e 1040 -c 0 -i 20 -a 0 -x {0.0 1.0 13 ------- null}
+ -t 0.336288 -s 0 -d 1 -p tcp -e 1040 -c 0 -i 21 -a 0 -x {0.0 1.0 14 ------- null}
- -t 0.336288 -s 0 -d 1 -p tcp -e 1040 -c 0 -i 17 -a 0 -x {0.0 1.0 10 ------- null}
h -t 0.336288 -s 0 -d 1 -p tcp -e 1040 -c 0 -i 17 -a 0 -x {0.0 1.0 -1 ------- null}
- -t 0.33712 -s 0 -d 1 -p tcp -e 1040 -c 0 -i 18 -a 0 -x {0.0 1.0 11 ------- null}
h -t 0.33712 -s 0 -d 1 -p tcp -e 1040 -c 0 -i 18 -a 0 -x {0.0 1.0 -1 ------- null}
- -t 0.337952 -s 0 -d 1 -p tcp -e 1040 -c 0 -i 19 -a 0 -x {0.0 1.0 12 ------- null}
h -t 0.337952 -s 0 -d 1 -p tcp -e 1040 -c 0 -i 19 -a 0 -x {0.0 1.0 -1 ------- null}
- -t 0.338784 -s 0 -d 1 -p tcp -e 1040 -c 0 -i 20 -a 0 -x {0.0 1.0 13 ------- null}
h -t 0.338784 -s 0 -d 1 -p tcp -e 1040 -c 0 -i 20 -a 0 -x {0.0 1.0 -1 ------- null}
- -t 0.339616 -s 0 -d 1 -p tcp -e 1040 -c 0 -i 21 -a 0 -x {0.0 1.0 14 ------- null}
h -t 0.339616 -s 0 -d 1 -p tcp -e 1040 -c 0 -i 21 -a 0 -x {0.0 1.0 -1 ------- null}
r -t 0.356624 -s 0 -d 1 -p tcp -e 1040 -c 0 -i 14 -a 0 -x {0.0 1.0 7 ------- null}
+ -t 0.356624 -s 1 -d 0 -p ack -e 40 -c 0 -i 22 -a 0 -x {1.0 0.0 7 ------- null}
- -t 0.356624 -s 1 -d 0 -p ack -e 40 -c 0 -i 22 -a 0 -x {1.0 0.0 7 ------- null}
h -t 0.356624 -s 1 -d 0 -p ack -e 40 -c 0 -i 22 -a 0 -x {1.0 0.0 -1 ------- null}
r -t 0.357456 -s 0 -d 1 -p tcp -e 1040 -c 0 -i 15 -a 0 -x {0.0 1.0 8 ------- null}
+ -t 0.357456 -s 1 -d 0 -p ack -e 40 -c 0 -i 23 -a 0 -x {1.0 0.0 8 ------- null}
- -t 0.357456 -s 1 -d 0 -p ack -e 40 -c 0 -i 23 -a 0 -x {1.0 0.0 8 ------- null}
h -t 0.357456 -s 1 -d 0 -p ack -e 40 -c 0 -i 23 -a 0 -x {1.0 0.0 -1 ------- null}
r -t 0.358288 -s 0 -d 1 -p tcp -e 1040 -c 0 -i 16 -a 0 -x {0.0 1.0 9 ------- null}
+ -t 0.358288 -s 1 -d 0 -p ack -e 40 -c 0 -i 24 -a 0 -x {1.0 0.0 9 ------- null}
- -t 0.358288 -s 1 -d 0 -p ack -e 40 -c 0 -i 24 -a 0 -x {1.0 0.0 9 ------- null}
h -t 0.358288 -s 1 -d 0 -p ack -e 40 -c 0 -i 24 -a 0 -x {1.0 0.0 -1 ------- null}
r -t 0.35912 -s 0 -d 1 -p tcp -e 1040 -c 0 -i 17 -a 0 -x {0.0 1.0 10 ------- null}
+ -t 0.35912 -s 1 -d 0 -p ack -e 40 -c 0 -i 25 -a 0 -x {1.0 0.0 10 ------- null}
- -t 0.35912 -s 1 -d 0 -p ack -e 40 -c 0 -i 25 -a 0 -x {1.0 0.0 10 ------- null}
h -t 0.35912 -s 1 -d 0 -p ack -e 40 -c 0 -i 25 -a 0 -x {1.0 0.0 -1 ------- null}
r -t 0.359952 -s 0 -d 1 -p tcp -e 1040 -c 0 -i 18 -a 0 -x {0.0 1.0 11 ------- null}
+ -t 0.359952 -s 1 -d 0 -p ack -e 40 -c 0 -i 26 -a 0 -x {1.0 0.0 11 ------- null}
- -t 0.359952 -s 1 -d 0 -p ack -e 40 -c 0 -i 26 -a 0 -x {1.0 0.0 11 ------- null}
h -t 0.359952 -s 1 -d 0 -p ack -e 40 -c 0 -i 26 -a 0 -x {1.0 0.0 -1 ------- null}
r -t 0.360784 -s 0 -d 1 -p tcp -e 1040 -c 0 -i 19 -a 0 -x {0.0 1.0 12 ------- null}
+ -t 0.360784 -s 1 -d 0 -p ack -e 40 -c 0 -i 27 -a 0 -x {1.0 0.0 12 ------- null}
- -t 0.360784 -s 1 -d 0 -p ack -e 40 -c 0 -i 27 -a 0 -x {1.0 0.0 12 ------- null}
h -t 0.360784 -s 1 -d 0 -p ack -e 40 -c 0 -i 27 -a 0 -x {1.0 0.0 -1 ------- null}
r -t 0.361616 -s 0 -d 1 -p tcp -e 1040 -c 0 -i 20 -a 0 -x {0.0 1.0 13 ------- null}
+ -t 0.361616 -s 1 -d 0 -p ack -e 40 -c 0 -i 28 -a 0 -x {1.0 0.0 13 ------- null}
- -t 0.361616 -s 1 -d 0 -p ack -e 40 -c 0 -i 28 -a 0 -x {1.0 0.0 13 ------- null}
h -t 0.361616 -s 1 -d 0 -p ack -e 40 -c 0 -i 28 -a 0 -x {1.0 0.0 -1 ------- null}
r -t 0.362448 -s 0 -d 1 -p tcp -e 1040 -c 0 -i 21 -a 0 -x {0.0 1.0 14 ------- null}
+ -t 0.362448 -s 1 -d 0 -p ack -e 40 -c 0 -i 29 -a 0 -x {1.0 0.0 14 ------- null}
- -t 0.362448 -s 1 -d 0 -p ack -e 40 -c 0 -i 29 -a 0 -x {1.0 0.0 14 ------- null}
h -t 0.362448 -s 1 -d 0 -p ack -e 40 -c 0 -i 29 -a 0 -x {1.0 0.0 -1 ------- null}
r -t 0.378656 -s 1 -d 0 -p ack -e 40 -c 0 -i 22 -a 0 -x {1.0 0.0 7 ------- null}
+ -t 0.378656 -s 0 -d 1 -p tcp -e 1040 -c 0 -i 30 -a 0 -x {0.0 1.0 15 ------- null}
- -t 0.378656 -s 0 -d 1 -p tcp -e 1040 -c 0 -i 30 -a 0 -x {0.0 1.0 15 ------- null}
h -t 0.378656 -s 0 -d 1 -p tcp -e 1040 -c 0 -i 30 -a 0 -x {0.0 1.0 -1 ------- null}
+ -t 0.378656 -s 0 -d 1 -p tcp -e 1040 -c 0 -i 31 -a 0 -x {0.0 1.0 16 ------- null}
r -t 0.379488 -s 1 -d 0 -p ack -e 40 -c 0 -i 23 -a 0 -x {1.0 0.0 8 ------- null}
+ -t 0.379488 -s 0 -d 1 -p tcp -e 1040 -c 0 -i 32 -a 0 -x {0.0 1.0 17 ------- null}
+ -t 0.379488 -s 0 -d 1 -p tcp -e 1040 -c 0 -i 33 -a 0 -x {0.0 1.0 18 ------- null}
- -t 0.379488 -s 0 -d 1 -p tcp -e 1040 -c 0 -i 31 -a 0 -x {0.0 1.0 16 ------- null}
h -t 0.379488 -s 0 -d 1 -p tcp -e 1040 -c 0 -i 31 -a 0 -x {0.0 1.0 -1 ------- null}
r -t 0.38032 -s 1 -d 0 -p ack -e 40 -c 0 -i 24 -a 0 -x {1.0 0.0 9 ------- null}
+ -t 0.38032 -s 0 -d 1 -p tcp -e 1040 -c 0 -i 34 -a 0 -x {0.0 1.0 19 ------- null}
+ -t 0.38032 -s 0 -d 1 -p tcp -e 1040 -c 0 -i 35 -a 0 -x {0.0 1.0 20 ------- null}
- -t 0.38032 -s 0 -d 1 -p tcp -e 1040 -c 0 -i 32 -a 0 -x {0.0 1.0 17 ------- null}
h -t 0.38032 -s 0 -d 1 -p tcp -e 1040 -c 0 -i 32 -a 0 -x {0.0 1.0 -1 ------- null}
r -t 0.381152 -s 1 -d 0 -p ack -e 40 -c 0 -i 25 -a 0 -x {1.0 0.0 10 ------- null}
+ -t 0.381152 -s 0 -d 1 -p tcp -e 1040 -c 0 -i 36 -a 0 -x {0.0 1.0 21 ------- null}
+ -t 0.381152 -s 0 -d 1 -p tcp -e 1040 -c 0 -i 37 -a 0 -x {0.0 1.0 22 ------- null}
- -t 0.381152 -s 0 -d 1 -p tcp -e 1040 -c 0 -i 33 -a 0 -x {0.0 1.0 18 ------- null}
h -t 0.381152 -s 0 -d 1 -p tcp -e 1040 -c 0 -i 33 -a 0 -x {0.0 1.0 -1 ------- null}
r -t 0.381984 -s 1 -d 0 -p ack -e 40 -c 0 -i 26 -a 0 -x {1.0 0.0 11 ------- null}
+ -t 0.381984 -s 0 -d 1 -p tcp -e 1040 -c 0 -i 38 -a 0 -x {0.0 1.0 23 ------- null}
+ -t 0.381984 -s 0 -d 1 -p tcp -e 1040 -c 0 -i 39 -a 0 -x {0.0 1.0 24 ------- null}
- -t 0.381984 -s 0 -d 1 -p tcp -e 1040 -c 0 -i 34 -a 0 -x {0.0 1.0 19 ------- null}
h -t 0.381984 -s 0 -d 1 -p tcp -e 1040 -c 0 -i 34 -a 0 -x {0.0 1.0 -1 ------- null}
r -t 0.382816 -s 1 -d 0 -p ack -e 40 -c 0 -i 27 -a 0 -x {1.0 0.0 12 ------- null}
+ -t 0.382816 -s 0 -d 1 -p tcp -e 1040 -c 0 -i 40 -a 0 -x {0.0 1.0 25 ------- null}
+ -t 0.382816 -s 0 -d 1 -p tcp -e 1040 -c 0 -i 41 -a 0 -x {0.0 1.0 26 ------- null}
- -t 0.382816 -s 0 -d 1 -p tcp -e 1040 -c 0 -i 35 -a 0 -x {0.0 1.0 20 ------- null}
h -t 0.382816 -s 0 -d 1 -p tcp -e 1040 -c 0 -i 35 -a 0 -x {0.0 1.0 -1 ------- null}
r -t 0.383648 -s 1 -d 0 -p ack -e 40 -c 0 -i 28 -a 0 -x {1.0 0.0 13 ------- null}
+ -t 0.383648 -s 0 -d 1 -p tcp -e 1040 -c 0 -i 42 -a 0 -x {0.0 1.0 27 ------- null}
+ -t 0.383648 -s 0 -d 1 -p tcp -e 1040 -c 0 -i 43 -a 0 -x {0.0 1.0 28 ------- null}
- -t 0.383648 -s 0 -d 1 -p tcp -e 1040 -c 0 -i 36 -a 0 -x {0.0 1.0 21 ------- null}
h -t 0.383648 -s 0 -d 1 -p tcp -e 1040 -c 0 -i 36 -a 0 -x {0.0 1.0 -1 ------- null}
r -t 0.38448 -s 1 -d 0 -p ack -e 40 -c 0 -i 29 -a 0 -x {1.0 0.0 14 ------- null}
+ -t 0.38448 -s 0 -d 1 -p tcp -e 1040 -c 0 -i 44 -a 0 -x {0.0 1.0 29 ------- null}
+ -t 0.38448 -s 0 -d 1 -p tcp -e 1040 -c 0 -i 45 -a 0 -x {0.0 1.0 30 ------- null}
- -t 0.38448 -s 0 -d 1 -p tcp -e 1040 -c 0 -i 37 -a 0 -x {0.0 1.0 22 ------- null}
h -t 0.38448 -s 0 -d 1 -p tcp -e 1040 -c 0 -i 37 -a 0 -x {0.0 1.0 -1 ------- null}
- -t 0.385312 -s 0 -d 1 -p tcp -e 1040 -c 0 -i 38 -a 0 -x {0.0 1.0 23 ------- null}
h -t 0.385312 -s 0 -d 1 -p tcp -e 1040 -c 0 -i 38 -a 0 -x {0.0 1.0 -1 ------- null}
- -t 0.386144 -s 0 -d 1 -p tcp -e 1040 -c 0 -i 39 -a 0 -x {0.0 1.0 24 ------- null}
h -t 0.386144 -s 0 -d 1 -p tcp -e 1040 -c 0 -i 39 -a 0 -x {0.0 1.0 -1 ------- null}
- -t 0.386976 -s 0 -d 1 -p tcp -e 1040 -c 0 -i 40 -a 0 -x {0.0 1.0 25 ------- null}
h -t 0.386976 -s 0 -d 1 -p tcp -e 1040 -c 0 -i 40 -a 0 -x {0.0 1.0 -1 ------- null}
- -t 0.387808 -s 0 -d 1 -p tcp -e 1040 -c 0 -i 41 -a 0 -x {0.0 1.0 26 ------- null}
h -t 0.387808 -s 0 -d 1 -p tcp -e 1040 -c 0 -i 41 -a 0 -x {0.0 1.0 -1 ------- null}
- -t 0.38864 -s 0 -d 1 -p tcp -e 1040 -c 0 -i 42 -a 0 -x {0.0 1.0 27 ------- null}
h -t 0.38864 -s 0 -d 1 -p tcp -e 1040 -c 0 -i 42 -a 0 -x {0.0 1.0 -1 ------- null}
- -t 0.389472 -s 0 -d 1 -p tcp -e 1040 -c 0 -i 43 -a 0 -x {0.0 1.0 28 ------- null}
h -t 0.389472 -s 0 -d 1 -p tcp -e 1040 -c 0 -i 43 -a 0 -x {0.0 1.0 -1 ------- null}
- -t 0.390304 -s 0 -d 1 -p tcp -e 1040 -c 0 -i 44 -a 0 -x {0.0 1.0 29 ------- null}
h -t 0.390304 -s 0 -d 1 -p tcp -e 1040 -c 0 -i 44 -a 0 -x {0.0 1.0 -1 ------- null}
- -t 0.391136 -s 0 -d 1 -p tcp -e 1040 -c 0 -i 45 -a 0 -x {0.0 1.0 30 ------- null}
h -t 0.391136 -s 0 -d 1 -p tcp -e 1040 -c 0 -i 45 -a 0 -x {0.0 1.0 -1 ------- null}
r -t 0.401488 -s 0 -d 1 -p tcp -e 1040 -c 0 -i 30 -a 0 -x {0.0 1.0 15 ------- null}
+ -t 0.401488 -s 1 -d 0 -p ack -e 40 -c 0 -i 46 -a 0 -x {1.0 0.0 15 ------- null}
- -t 0.401488 -s 1 -d 0 -p ack -e 40 -c 0 -i 46 -a 0 -x {1.0 0.0 15 ------- null}
h -t 0.401488 -s 1 -d 0 -p ack -e 40 -c 0 -i 46 -a 0 -x {1.0 0.0 -1 ------- null}
r -t 0.40232 -s 0 -d 1 -p tcp -e 1040 -c 0 -i 31 -a 0 -x {0.0 1.0 16 ------- null}
+ -t 0.40232 -s 1 -d 0 -p ack -e 40 -c 0 -i 47 -a 0 -x {1.0 0.0 16 ------- null}
- -t 0.40232 -s 1 -d 0 -p ack -e 40 -c 0 -i 47 -a 0 -x {1.0 0.0 16 ------- null}
h -t 0.40232 -s 1 -d 0 -p ack -e 40 -c 0 -i 47 -a 0 -x {1.0 0.0 -1 ------- null}
r -t 0.403152 -s 0 -d 1 -p tcp -e 1040 -c 0 -i 32 -a 0 -x {0.0 1.0 17 ------- null}
+ -t 0.403152 -s 1 -d 0 -p ack -e 40 -c 0 -i 48 -a 0 -x {1.0 0.0 17 ------- null}
- -t 0.403152 -s 1 -d 0 -p ack -e 40 -c 0 -i 48 -a 0 -x {1.0 0.0 17 ------- null}
h -t 0.403152 -s 1 -d 0 -p ack -e 40 -c 0 -i 48 -a 0 -x {1.0 0.0 -1 ------- null}
r -t 0.403984 -s 0 -d 1 -p tcp -e 1040 -c 0 -i 33 -a 0 -x {0.0 1.0 18 ------- null}
+ -t 0.403984 -s 1 -d 0 -p ack -e 40 -c 0 -i 49 -a 0 -x {1.0 0.0 18 ------- null}
- -t 0.403984 -s 1 -d 0 -p ack -e 40 -c 0 -i 49 -a 0 -x {1.0 0.0 18 ------- null}
h -t 0.403984 -s 1 -d 0 -p ack -e 40 -c 0 -i 49 -a 0 -x {1.0 0.0 -1 ------- null}
r -t 0.404816 -s 0 -d 1 -p tcp -e 1040 -c 0 -i 34 -a 0 -x {0.0 1.0 19 ------- null}
+ -t 0.404816 -s 1 -d 0 -p ack -e 40 -c 0 -i 50 -a 0 -x {1.0 0.0 19 ------- null}
- -t 0.404816 -s 1 -d 0 -p ack -e 40 -c 0 -i 50 -a 0 -x {1.0 0.0 19 ------- null}
h -t 0.404816 -s 1 -d 0 -p ack -e 40 -c 0 -i 50 -a 0 -x {1.0 0.0 -1 ------- null}
r -t 0.405648 -s 0 -d 1 -p tcp -e 1040 -c 0 -i 35 -a 0 -x {0.0 1.0 20 ------- null}
+ -t 0.405648 -s 1 -d 0 -p ack -e 40 -c 0 -i 51 -a 0 -x {1.0 0.0 20 ------- null}
- -t 0.405648 -s 1 -d 0 -p ack -e 40 -c 0 -i 51 -a 0 -x {1.0 0.0 20 ------- null}
h -t 0.405648 -s 1 -d 0 -p ack -e 40 -c 0 -i 51 -a 0 -x {1.0 0.0 -1 ------- null}
r -t 0.40648 -s 0 -d 1 -p tcp -e 1040 -c 0 -i 36 -a 0 -x {0.0 1.0 21 ------- null}
+ -t 0.40648 -s 1 -d 0 -p ack -e 40 -c 0 -i 52 -a 0 -x {1.0 0.0 21 ------- null}
- -t 0.40648 -s 1 -d 0 -p ack -e 40 -c 0 -i 52 -a 0 -x {1.0 0.0 21 ------- null}
h -t 0.40648 -s 1 -d 0 -p ack -e 40 -c 0 -i 52 -a 0 -x {1.0 0.0 -1 ------- null}
r -t 0.407312 -s 0 -d 1 -p tcp -e 1040 -c 0 -i 37 -a 0 -x {0.0 1.0 22 ------- null}
+ -t 0.407312 -s 1 -d 0 -p ack -e 40 -c 0 -i 53 -a 0 -x {1.0 0.0 22 ------- null}
- -t 0.407312 -s 1 -d 0 -p ack -e 40 -c 0 -i 53 -a 0 -x {1.0 0.0 22 ------- null}
h -t 0.407312 -s 1 -d 0 -p ack -e 40 -c 0 -i 53 -a 0 -x {1.0 0.0 -1 ------- null}
r -t 0.408144 -s 0 -d 1 -p tcp -e 1040 -c 0 -i 38 -a 0 -x {0.0 1.0 23 ------- null}
+ -t 0.408144 -s 1 -d 0 -p ack -e 40 -c 0 -i 54 -a 0 -x {1.0 0.0 23 ------- null}
- -t 0.408144 -s 1 -d 0 -p ack -e 40 -c 0 -i 54 -a 0 -x {1.0 0.0 23 ------- null}
h -t 0.408144 -s 1 -d 0 -p ack -e 40 -c 0 -i 54 -a 0 -x {1.0 0.0 -1 ------- null}
r -t 0.408976 -s 0 -d 1 -p tcp -e 1040 -c 0 -i 39 -a 0 -x {0.0 1.0 24 ------- null}
+ -t 0.408976 -s 1 -d 0 -p ack -e 40 -c 0 -i 55 -a 0 -x {1.0 0.0 24 ------- null}
- -t 0.408976 -s 1 -d 0 -p ack -e 40 -c 0 -i 55 -a 0 -x {1.0 0.0 24 ------- null}
h -t 0.408976 -s 1 -d 0 -p ack -e 40 -c 0 -i 55 -a 0 -x {1.0 0.0 -1 ------- null}
r -t 0.409808 -s 0 -d 1 -p tcp -e 1040 -c 0 -i 40 -a 0 -x {0.0 1.0 25 ------- null}
+ -t 0.409808 -s 1 -d 0 -p ack -e 40 -c 0 -i 56 -a 0 -x {1.0 0.0 25 ------- null}
- -t 0.409808 -s 1 -d 0 -p ack -e 40 -c 0 -i 56 -a 0 -x {1.0 0.0 25 ------- null}
h -t 0.409808 -s 1 -d 0 -p ack -e 40 -c 0 -i 56 -a 0 -x {1.0 0.0 -1 ------- null}
r -t 0.41064 -s 0 -d 1 -p tcp -e 1040 -c 0 -i 41 -a 0 -x {0.0 1.0 26 ------- null}
+ -t 0.41064 -s 1 -d 0 -p ack -e 40 -c 0 -i 57 -a 0 -x {1.0 0.0 26 ------- null}
- -t 0.41064 -s 1 -d 0 -p ack -e 40 -c 0 -i 57 -a 0 -x {1.0 0.0 26 ------- null}
h -t 0.41064 -s 1 -d 0 -p ack -e 40 -c 0 -i 57 -a 0 -x {1.0 0.0 -1 ------- null}
r -t 0.411472 -s 0 -d 1 -p tcp -e 1040 -c 0 -i 42 -a 0 -x {0.0 1.0 27 ------- null}
+ -t 0.411472 -s 1 -d 0 -p ack -e 40 -c 0 -i 58 -a 0 -x {1.0 0.0 27 ------- null}
- -t 0.411472 -s 1 -d 0 -p ack -e 40 -c 0 -i 58 -a 0 -x {1.0 0.0 27 ------- null}
h -t 0.411472 -s 1 -d 0 -p ack -e 40 -c 0 -i 58 -a 0 -x {1.0 0.0 -1 ------- null}
r -t 0.412304 -s 0 -d 1 -p tcp -e 1040 -c 0 -i 43 -a 0 -x {0.0 1.0 28 ------- null}
+ -t 0.412304 -s 1 -d 0 -p ack -e 40 -c 0 -i 59 -a 0 -x {1.0 0.0 28 ------- null}
- -t 0.412304 -s 1 -d 0 -p ack -e 40 -c 0 -i 59 -a 0 -x {1.0 0.0 28 ------- null}
h -t 0.412304 -s 1 -d 0 -p ack -e 40 -c 0 -i 59 -a 0 -x {1.0 0.0 -1 ------- null}
r -t 0.413136 -s 0 -d 1 -p tcp -e 1040 -c 0 -i 44 -a 0 -x {0.0 1.0 29 ------- null}
+ -t 0.413136 -s 1 -d 0 -p ack -e 40 -c 0 -i 60 -a 0 -x {1.0 0.0 29 ------- null}
- -t 0.413136 -s 1 -d 0 -p ack -e 40 -c 0 -i 60 -a 0 -x {1.0 0.0 29 ------- null}
h -t 0.413136 -s 1 -d 0 -p ack -e 40 -c 0 -i 60 -a 0 -x {1.0 0.0 -1 ------- null}
r -t 0.413968 -s 0 -d 1 -p tcp -e 1040 -c 0 -i 45 -a 0 -x {0.0 1.0 30 ------- null}
+ -t 0.413968 -s 1 -d 0 -p ack -e 40 -c 0 -i 61 -a 0 -x {1.0 0.0 30 ------- null}
- -t 0.413968 -s 1 -d 0 -p ack -e 40 -c 0 -i 61 -a 0 -x {1.0 0.0 30 ------- null}
h -t 0.413968 -s 1 -d 0 -p ack -e 40 -c 0 -i 61 -a 0 -x {1.0 0.0 -1 ------- null}
r -t 0.42352 -s 1 -d 0 -p ack -e 40 -c 0 -i 46 -a 0 -x {1.0 0.0 15 ------- null}
+ -t 0.42352 -s 0 -d 1 -p tcp -e 1040 -c 0 -i 62 -a 0 -x {0.0 1.0 31 ------- null}
- -t 0.42352 -s 0 -d 1 -p tcp -e 1040 -c 0 -i 62 -a 0 -x {0.0 1.0 31 ------- null}
h -t 0.42352 -s 0 -d 1 -p tcp -e 1040 -c 0 -i 62 -a 0 -x {0.0 1.0 -1 ------- null}
+ -t 0.42352 -s 0 -d 1 -p tcp -e 1040 -c 0 -i 63 -a 0 -x {0.0 1.0 32 ------- null}
r -t 0.424352 -s 1 -d 0 -p ack -e 40 -c 0 -i 47 -a 0 -x {1.0 0.0 16 ------- null}
+ -t 0.424352 -s 0 -d 1 -p tcp -e 1040 -c 0 -i 64 -a 0 -x {0.0 1.0 33 ------- null}
+ -t 0.424352 -s 0 -d 1 -p tcp -e 1040 -c 0 -i 65 -a 0 -x {0.0 1.0 34 ------- null}
- -t 0.424352 -s 0 -d 1 -p tcp -e 1040 -c 0 -i 63 -a 0 -x {0.0 1.0 32 ------- null}
h -t 0.424352 -s 0 -d 1 -p tcp -e 1040 -c 0 -i 63 -a 0 -x {0.0 1.0 -1 ------- null}
r -t 0.425184 -s 1 -d 0 -p ack -e 40 -c 0 -i 48 -a 0 -x {1.0 0.0 17 ------- null}
+ -t 0.425184 -s 0 -d 1 -p tcp -e 1040 -c 0 -i 66 -a 0 -x {0.0 1.0 35 ------- null}
+ -t 0.425184 -s 0 -d 1 -p tcp -e 1040 -c 0 -i 67 -a 0 -x {0.0 1.0 36 ------- null}
- -t 0.425184 -s 0 -d 1 -p tcp -e 1040 -c 0 -i 64 -a 0 -x {0.0 1.0 33 ------- null}
h -t 0.425184 -s 0 -d 1 -p tcp -e 1040 -c 0 -i 64 -a 0 -x {0.0 1.0 -1 ------- null}
r -t 0.426016 -s 1 -d 0 -p ack -e 40 -c 0 -i 49 -a 0 -x {1.0 0.0 18 ------- null}
+ -t 0.426016 -s 0 -d 1 -p tcp -e 1040 -c 0 -i 68 -a 0 -x {0.0 1.0 37 ------- null}
+ -t 0.426016 -s 0 -d 1 -p tcp -e 1040 -c 0 -i 69 -a 0 -x {0.0 1.0 38 ------- null}
- -t 0.426016 -s 0 -d 1 -p tcp -e 1040 -c 0 -i 65 -a 0 -x {0.0 1.0 34 ------- null}
h -t 0.426016 -s 0 -d 1 -p tcp -e 1040 -c 0 -i 65 -a 0 -x {0.0 1.0 -1 ------- null}
r -t 0.426848 -s 1 -d 0 -p ack -e 40 -c 0 -i 50 -a 0 -x {1.0 0.0 19 ------- null}
+ -t 0.426848 -s 0 -d 1 -p tcp -e 1040 -c 0 -i 70 -a 0 -x {0.0 1.0 39 ------- null}
- -t 0.426848 -s 0 -d 1 -p tcp -e 1040 -c 0 -i 66 -a 0 -x {0.0 1.0 35 ------- null}
h -t 0.426848 -s 0 -d 1 -p tcp -e 1040 -c 0 -i 66 -a 0 -x {0.0 1.0 -1 ------- null}
r -t 0.42768 -s 1 -d 0 -p ack -e 40 -c 0 -i 51 -a 0 -x {1.0 0.0 20 ------- null}
+ -t 0.42768 -s 0 -d 1 -p tcp -e 1040 -c 0 -i 71 -a 0 -x {0.0 1.0 40 ------- null}
- -t 0.42768 -s 0 -d 1 -p tcp -e 1040 -c 0 -i 67 -a 0 -x {0.0 1.0 36 ------- null}
h -t 0.42768 -s 0 -d 1 -p tcp -e 1040 -c 0 -i 67 -a 0 -x {0.0 1.0 -1 ------- null}
r -t 0.428512 -s 1 -d 0 -p ack -e 40 -c 0 -i 52 -a 0 -x {1.0 0.0 21 ------- null}
+ -t 0.428512 -s 0 -d 1 -p tcp -e 1040 -c 0 -i 72 -a 0 -x {0.0 1.0 41 ------- null}
- -t 0.428512 -s 0 -d 1 -p tcp -e 1040 -c 0 -i 68 -a 0 -x {0.0 1.0 37 ------- null}
h -t 0.428512 -s 0 -d 1 -p tcp -e 1040 -c 0 -i 68 -a 0 -x {0.0 1.0 -1 ------- null}
r -t 0.429344 -s 1 -d 0 -p ack -e 40 -c 0 -i 53 -a 0 -x {1.0 0.0 22 ------- null}
+ -t 0.429344 -s 0 -d 1 -p tcp -e 1040 -c 0 -i 73 -a 0 -x {0.0 1.0 42 ------- null}
- -t 0.429344 -s 0 -d 1 -p tcp -e 1040 -c 0 -i 69 -a 0 -x {0.0 1.0 38 ------- null}
h -t 0.429344 -s 0 -d 1 -p tcp -e 1040 -c 0 -i 69 -a 0 -x {0.0 1.0 -1 ------- null}
r -t 0.430176 -s 1 -d 0 -p ack -e 40 -c 0 -i 54 -a 0 -x {1.0 0.0 23 ------- null}
+ -t 0.430176 -s 0 -d 1 -p tcp -e 1040 -c 0 -i 74 -a 0 -x {0.0 1.0 43 ------- null}
- -t 0.430176 -s 0 -d 1 -p tcp -e 1040 -c 0 -i 70 -a 0 -x {0.0 1.0 39 ------- null}
h -t 0.430176 -s 0 -d 1 -p tcp -e 1040 -c 0 -i 70 -a 0 -x {0.0 1.0 -1 ------- null}
r -t 0.431008 -s 1 -d 0 -p ack -e 40 -c 0 -i 55 -a 0 -x {1.0 0.0 24 ------- null}
+ -t 0.431008 -s 0 -d 1 -p tcp -e 1040 -c 0 -i 75 -a 0 -x {0.0 1.0 44 ------- null}
- -t 0.431008 -s 0 -d 1 -p tcp -e 1040 -c 0 -i 71 -a 0 -x {0.0 1.0 40 ------- null}
h -t 0.431008 -s 0 -d 1 -p tcp -e 1040 -c 0 -i 71 -a 0 -x {0.0 1.0 -1 ------- null}
r -t 0.43184 -s 1 -d 0 -p ack -e 40 -c 0 -i 56 -a 0 -x {1.0 0.0 25 ------- null}
+ -t 0.43184 -s 0 -d 1 -p tcp -e 1040 -c 0 -i 76 -a 0 -x {0.0 1.0 45 ------- null}
- -t 0.43184 -s 0 -d 1 -p tcp -e 1040 -c 0 -i 72 -a 0 -x {0.0 1.0 41 ------- null}
h -t 0.43184 -s 0 -d 1 -p tcp -e 1040 -c 0 -i 72 -a 0 -x {0.0 1.0 -1 ------- null}
r -t 0.432672 -s 1 -d 0 -p ack -e 40 -c 0 -i 57 -a 0 -x {1.0 0.0 26 ------- null}
+ -t 0.432672 -s 0 -d 1 -p tcp -e 1040 -c 0 -i 77 -a 0 -x {0.0 1.0 46 ------- null}
- -t 0.432672 -s 0 -d 1 -p tcp -e 1040 -c 0 -i 73 -a 0 -x {0.0 1.0 42 ------- null}
h -t 0.432672 -s 0 -d 1 -p tcp -e 1040 -c 0 -i 73 -a 0 -x {0.0 1.0 -1 ------- null}
r -t 0.433504 -s 1 -d 0 -p ack -e 40 -c 0 -i 58 -a 0 -x {1.0 0.0 27 ------- null}
+ -t 0.433504 -s 0 -d 1 -p tcp -e 1040 -c 0 -i 78 -a 0 -x {0.0 1.0 47 ------- null}
- -t 0.433504 -s 0 -d 1 -p tcp -e 1040 -c 0 -i 74 -a 0 -x {0.0 1.0 43 ------- null}
h -t 0.433504 -s 0 -d 1 -p tcp -e 1040 -c 0 -i 74 -a 0 -x {0.0 1.0 -1 ------- null}
r -t 0.434336 -s 1 -d 0 -p ack -e 40 -c 0 -i 59 -a 0 -x {1.0 0.0 28 ------- null}
+ -t 0.434336 -s 0 -d 1 -p tcp -e 1040 -c 0 -i 79 -a 0 -x {0.0 1.0 48 ------- null}
- -t 0.434336 -s 0 -d 1 -p tcp -e 1040 -c 0 -i 75 -a 0 -x {0.0 1.0 44 ------- null}
h -t 0.434336 -s 0 -d 1 -p tcp -e 1040 -c 0 -i 75 -a 0 -x {0.0 1.0 -1 ------- null}
r -t 0.435168 -s 1 -d 0 -p ack -e 40 -c 0 -i 60 -a 0 -x {1.0 0.0 29 ------- null}
+ -t 0.435168 -s 0 -d 1 -p tcp -e 1040 -c 0 -i 80 -a 0 -x {0.0 1.0 49 ------- null}
- -t 0.435168 -s 0 -d 1 -p tcp -e 1040 -c 0 -i 76 -a 0 -x {0.0 1.0 45 ------- null}
h -t 0.435168 -s 0 -d 1 -p tcp -e 1040 -c 0 -i 76 -a 0 -x {0.0 1.0 -1 ------- null}
r -t 0.436 -s 1 -d 0 -p ack -e 40 -c 0 -i 61 -a 0 -x {1.0 0.0 30 ------- null}
+ -t 0.436 -s 0 -d 1 -p tcp -e 1040 -c 0 -i 81 -a 0 -x {0.0 1.0 50 ------- null}
- -t 0.436 -s 0 -d 1 -p tcp -e 1040 -c 0 -i 77 -a 0 -x {0.0 1.0 46 ------- null}
h -t 0.436 -s 0 -d 1 -p tcp -e 1040 -c 0 -i 77 -a 0 -x {0.0 1.0 -1 ------- null}
- -t 0.436832 -s 0 -d 1 -p tcp -e 1040 -c 0 -i 78 -a 0 -x {0.0 1.0 47 ------- null}
h -t 0.436832 -s 0 -d 1 -p tcp -e 1040 -c 0 -i 78 -a 0 -x {0.0 1.0 -1 ------- null}
- -t 0.437664 -s 0 -d 1 -p tcp -e 1040 -c 0 -i 79 -a 0 -x {0.0 1.0 48 ------- null}
h -t 0.437664 -s 0 -d 1 -p tcp -e 1040 -c 0 -i 79 -a 0 -x {0.0 1.0 -1 ------- null}
- -t 0.438496 -s 0 -d 1 -p tcp -e 1040 -c 0 -i 80 -a 0 -x {0.0 1.0 49 ------- null}
h -t 0.438496 -s 0 -d 1 -p tcp -e 1040 -c 0 -i 80 -a 0 -x {0.0 1.0 -1 ------- null}
- -t 0.439328 -s 0 -d 1 -p tcp -e 1040 -c 0 -i 81 -a 0 -x {0.0 1.0 50 ------- null}
h -t 0.439328 -s 0 -d 1 -p tcp -e 1040 -c 0 -i 81 -a 0 -x {0.0 1.0 -1 ------- null}
r -t 0.446352 -s 0 -d 1 -p tcp -e 1040 -c 0 -i 62 -a 0 -x {0.0 1.0 31 ------- null}
+ -t 0.446352 -s 1 -d 0 -p ack -e 40 -c 0 -i 82 -a 0 -x {1.0 0.0 31 ------- null}
- -t 0.446352 -s 1 -d 0 -p ack -e 40 -c 0 -i 82 -a 0 -x {1.0 0.0 31 ------- null}
h -t 0.446352 -s 1 -d 0 -p ack -e 40 -c 0 -i 82 -a 0 -x {1.0 0.0 -1 ------- null}
r -t 0.447184 -s 0 -d 1 -p tcp -e 1040 -c 0 -i 63 -a 0 -x {0.0 1.0 32 ------- null}
+ -t 0.447184 -s 1 -d 0 -p ack -e 40 -c 0 -i 83 -a 0 -x {1.0 0.0 32 ------- null}
- -t 0.447184 -s 1 -d 0 -p ack -e 40 -c 0 -i 83 -a 0 -x {1.0 0.0 32 ------- null}
h -t 0.447184 -s 1 -d 0 -p ack -e 40 -c 0 -i 83 -a 0 -x {1.0 0.0 -1 ------- null}
r -t 0.448016 -s 0 -d 1 -p tcp -e 1040 -c 0 -i 64 -a 0 -x {0.0 1.0 33 ------- null}
+ -t 0.448016 -s 1 -d 0 -p ack -e 40 -c 0 -i 84 -a 0 -x {1.0 0.0 33 ------- null}
- -t 0.448016 -s 1 -d 0 -p ack -e 40 -c 0 -i 84 -a 0 -x {1.0 0.0 33 ------- null}
h -t 0.448016 -s 1 -d 0 -p ack -e 40 -c 0 -i 84 -a 0 -x {1.0 0.0 -1 ------- null}
r -t 0.448848 -s 0 -d 1 -p tcp -e 1040 -c 0 -i 65 -a 0 -x {0.0 1.0 34 ------- null}
+ -t 0.448848 -s 1 -d 0 -p ack -e 40 -c 0 -i 85 -a 0 -x {1.0 0.0 34 ------- null}
- -t 0.448848 -s 1 -d 0 -p ack -e 40 -c 0 -i 85 -a 0 -x {1.0 0.0 34 ------- null}
h -t 0.448848 -s 1 -d 0 -p ack -e 40 -c 0 -i 85 -a 0 -x {1.0 0.0 -1 ------- null}
r -t 0.44968 -s 0 -d 1 -p tcp -e 1040 -c 0 -i 66 -a 0 -x {0.0 1.0 35 ------- null}
+ -t 0.44968 -s 1 -d 0 -p ack -e 40 -c 0 -i 86 -a 0 -x {1.0 0.0 35 ------- null}
- -t 0.44968 -s 1 -d 0 -p ack -e 40 -c 0 -i 86 -a 0 -x {1.0 0.0 35 ------- null}
h -t 0.44968 -s 1 -d 0 -p ack -e 40 -c 0 -i 86 -a 0 -x {1.0 0.0 -1 ------- null}
r -t 0.450512 -s 0 -d 1 -p tcp -e 1040 -c 0 -i 67 -a 0 -x {0.0 1.0 36 ------- null}
+ -t 0.450512 -s 1 -d 0 -p ack -e 40 -c 0 -i 87 -a 0 -x {1.0 0.0 36 ------- null}
- -t 0.450512 -s 1 -d 0 -p ack -e 40 -c 0 -i 87 -a 0 -x {1.0 0.0 36 ------- null}
h -t 0.450512 -s 1 -d 0 -p ack -e 40 -c 0 -i 87 -a 0 -x {1.0 0.0 -1 ------- null}
r -t 0.451344 -s 0 -d 1 -p tcp -e 1040 -c 0 -i 68 -a 0 -x {0.0 1.0 37 ------- null}
+ -t 0.451344 -s 1 -d 0 -p ack -e 40 -c 0 -i 88 -a 0 -x {1.0 0.0 37 ------- null}
- -t 0.451344 -s 1 -d 0 -p ack -e 40 -c 0 -i 88 -a 0 -x {1.0 0.0 37 ------- null}
h -t 0.451344 -s 1 -d 0 -p ack -e 40 -c 0 -i 88 -a 0 -x {1.0 0.0 -1 ------- null}
r -t 0.452176 -s 0 -d 1 -p tcp -e 1040 -c 0 -i 69 -a 0 -x {0.0 1.0 38 ------- null}
+ -t 0.452176 -s 1 -d 0 -p ack -e 40 -c 0 -i 89 -a 0 -x {1.0 0.0 38 ------- null}
- -t 0.452176 -s 1 -d 0 -p ack -e 40 -c 0 -i 89 -a 0 -x {1.0 0.0 38 ------- null}
h -t 0.452176 -s 1 -d 0 -p ack -e 40 -c 0 -i 89 -a 0 -x {1.0 0.0 -1 ------- null}
r -t 0.453008 -s 0 -d 1 -p tcp -e 1040 -c 0 -i 70 -a 0 -x {0.0 1.0 39 ------- null}
+ -t 0.453008 -s 1 -d 0 -p ack -e 40 -c 0 -i 90 -a 0 -x {1.0 0.0 39 ------- null}
- -t 0.453008 -s 1 -d 0 -p ack -e 40 -c 0 -i 90 -a 0 -x {1.0 0.0 39 ------- null}
h -t 0.453008 -s 1 -d 0 -p ack -e 40 -c 0 -i 90 -a 0 -x {1.0 0.0 -1 ------- null}
r -t 0.45384 -s 0 -d 1 -p tcp -e 1040 -c 0 -i 71 -a 0 -x {0.0 1.0 40 ------- null}
+ -t 0.45384 -s 1 -d 0 -p ack -e 40 -c 0 -i 91 -a 0 -x {1.0 0.0 40 ------- null}
- -t 0.45384 -s 1 -d 0 -p ack -e 40 -c 0 -i 91 -a 0 -x {1.0 0.0 40 ------- null}
h -t 0.45384 -s 1 -d 0 -p ack -e 40 -c 0 -i 91 -a 0 -x {1.0 0.0 -1 ------- null}
r -t 0.454672 -s 0 -d 1 -p tcp -e 1040 -c 0 -i 72 -a 0 -x {0.0 1.0 41 ------- null}
+ -t 0.454672 -s 1 -d 0 -p ack -e 40 -c 0 -i 92 -a 0 -x {1.0 0.0 41 ------- null}
- -t 0.454672 -s 1 -d 0 -p ack -e 40 -c 0 -i 92 -a 0 -x {1.0 0.0 41 ------- null}
h -t 0.454672 -s 1 -d 0 -p ack -e 40 -c 0 -i 92 -a 0 -x {1.0 0.0 -1 ------- null}
r -t 0.455504 -s 0 -d 1 -p tcp -e 1040 -c 0 -i 73 -a 0 -x {0.0 1.0 42 ------- null}
+ -t 0.455504 -s 1 -d 0 -p ack -e 40 -c 0 -i 93 -a 0 -x {1.0 0.0 42 ------- null}
- -t 0.455504 -s 1 -d 0 -p ack -e 40 -c 0 -i 93 -a 0 -x {1.0 0.0 42 ------- null}
h -t 0.455504 -s 1 -d 0 -p ack -e 40 -c 0 -i 93 -a 0 -x {1.0 0.0 -1 ------- null}
r -t 0.456336 -s 0 -d 1 -p tcp -e 1040 -c 0 -i 74 -a 0 -x {0.0 1.0 43 ------- null}
+ -t 0.456336 -s 1 -d 0 -p ack -e 40 -c 0 -i 94 -a 0 -x {1.0 0.0 43 ------- null}
- -t 0.456336 -s 1 -d 0 -p ack -e 40 -c 0 -i 94 -a 0 -x {1.0 0.0 43 ------- null}
h -t 0.456336 -s 1 -d 0 -p ack -e 40 -c 0 -i 94 -a 0 -x {1.0 0.0 -1 ------- null}