+ 0.2 0 1 tcp 40 ------- 0 0.0 1.0 0 0
- 0.2 0 1 tcp 40 ------- 0 0.0 1.0 0 0
r 0.222032 0 1 tcp 40 ------- 0 0.0 1.0 0 0
+ 0.222032 1 0 ack 40 ------- 0 1.0 0.0 0 1
- 0.222032 1 0 ack 40 ------- 0 1.0 0.0 0 1
r 0.244064 1 0 ack 40 ------- 0 1.0 0.0 0 1
+ 0.244064 0 1 tcp 1040 ------- 0 0.0 1.0 1 2
- 0.244064 0 1 tcp 1040 ------- 0 0.0 1.0 1 2
+ 0.244064 0 1 tcp 1040 ------- 0 0.0 1.0 2 3
- 0.244896 0 1 tcp 1040 ------- 0 0.0 1.0 2 3
r 0.266896 0 1 tcp 1040 ------- 0 0.0 1.0 1 2
+ 0.266896 1 0 ack 40 ------- 0 1.0 0.0 1 4
- 0.266896 1 0 ack 40 ------- 0 1.0 0.0 1 4
r 0.267728 0 1 tcp 1040 ------- 0 0.0 1.0 2 3
+ 0.267728 1 0 ack 40 ------- 0 1.0 0.0 2 5
- 0.267728 1 0 ack 40 ------- 0 1.0 0.0 2 5
r 0.288928 1 0 ack 40 ------- 0 1.0 0.0 1 4
+ 0.288928 0 1 tcp 1040 ------- 0 0.0 1.0 3 6
- 0.288928 0 1 tcp 1040 ------- 0 0.0 1.0 3 6
+ 0.288928 0 1 tcp 1040 ------- 0 0.0 1.0 4 7
r 0.28976 1 0 ack 40 ------- 0 1.0 0.0 2 5
+ 0.28976 0 1 tcp 1040 ------- 0 0.0 1.0 5 8
+ 0.28976 0 1 tcp 1040 ------- 0 0.0 1.0 6 9
- 0.28976 0 1 tcp 1040 ------- 0 0.0 1.0 4 7
- 0.290592 0 1 tcp 1040 ------- 0 0.0 1.0 5 8
- 0.291424 0 1 tcp 1040 ------- 0 0.0 1.0 6 9
r 0.31176 0 1 tcp 1040 ------- 0 0.0 1.0 3 6
+ 0.31176 1 0 ack 40 ------- 0 1.0 0.0 3 10
- 0.31176 1 0 ack 40 ------- 0 1.0 0.0 3 10
r 0.312592 0 1 tcp 1040 ------- 0 0.0 1.0 4 7
+ 0.312592 1 0 ack 40 ------- 0 1.0 0.0 4 11
- 0.312592 1 0 ack 40 ------- 0 1.0 0.0 4 11
r 0.313424 0 1 tcp 1040 ------- 0 0.0 1.0 5 8
+ 0.313424 1 0 ack 40 ------- 0 1.0 0.0 5 12
- 0.313424 1 0 ack 40 ------- 0 1.0 0.0 5 12
r 0.314256 0 1 tcp 1040 ------- 0 0.0 1.0 6 9
+ 0.314256 1 0 ack 40 ------- 0 1.0 0.0 6 13
- 0.314256 1 0 ack 40 ------- 0 1.0 0.0 6 13
r 0.333792 1 0 ack 40 ------- 0 1.0 0.0 3 10
+ 0.333792 0 1 tcp 1040 ------- 0 0.0 1.0 7 14
- 0.333792 0 1 tcp 1040 ------- 0 0.0 1.0 7 14
+ 0.333792 0 1 tcp 1040 ------- 0 0.0 1.0 8 15
r 0.334624 1 0 ack 40 ------- 0 1.0 0.0 4 11
+ 0.334624 0 1 tcp 1040 ------- 0 0.0 1.0 9 16
+ 0.334624 0 1 tcp 1040 ------- 0 0.0 1.0 10 17
- 0.334624 0 1 tcp 1040 ------- 0 0.0 1.0 8 15
r 0.335456 1 0 ack 40 ------- 0 1.0 0.0 5 12
+ 0.335456 0 1 tcp 1040 ------- 0 0.0 1.0 11 18
+ 0.335456 0 1 tcp 1040 ------- 0 0.0 1.0 12 19
- 0.335456 0 1 tcp 1040 ------- 0 0.0 1.0 9 16
r 0.336288 1 0 ack 40 ------- 0 1.0 0.0 6 13
+ 0.336288 0 1 tcp 1040 ------- 0 0.0 1.0 13 20
+ 0.336288 0 1 tcp 1040 ------- 0 0.0 1.0 14 21
- 0.336288 0 1 tcp 1040 ------- 0 0.0 1.0 10 17
- 0.33712 0 1 tcp 1040 ------- 0 0.0 1.0 11 18
- 0.337952 0 1 tcp 1040 ------- 0 0.0 1.0 12 19
- 0.338784 0 1 tcp 1040 ------- 0 0.0 1.0 13 20
- 0.339616 0 1 tcp 1040 ------- 0 0.0 1.0 14 21
r 0.356624 0 1 tcp 1040 ------- 0 0.0 1.0 7 14
+ 0.356624 1 0 ack 40 ------- 0 1.0 0.0 7 22
- 0.356624 1 0 ack 40 ------- 0 1.0 0.0 7 22
r 0.357456 0 1 tcp 1040 ------- 0 0.0 1.0 8 15
+ 0.357456 1 0 ack 40 ------- 0 1.0 0.0 8 23
- 0.357456 1 0 ack 40 ------- 0 1.0 0.0 8 23
r 0.358288 0 1 tcp 1040 ------- 0 0.0 1.0 9 16
+ 0.358288 1 0 ack 40 ------- 0 1.0 0.0 9 24
- 0.358288 1 0 ack 40 ------- 0 1.0 0.0 9 24
r 0.35912 0 1 tcp 1040 ------- 0 0.0 1.0 10 17
+ 0.35912 1 0 ack 40 ------- 0 1.0 0.0 10 25
- 0.35912 1 0 ack 40 ------- 0 1.0 0.0 10 25
r 0.359952 0 1 tcp 1040 ------- 0 0.0 1.0 11 18
+ 0.359952 1 0 ack 40 ------- 0 1.0 0.0 11 26
- 0.359952 1 0 ack 40 ------- 0 1.0 0.0 11 26
r 0.360784 0 1 tcp 1040 ------- 0 0.0 1.0 12 19
+ 0.360784 1 0 ack 40 ------- 0 1.0 0.0 12 27
- 0.360784 1 0 ack 40 ------- 0 1.0 0.0 12 27
r 0.361616 0 1 tcp 1040 ------- 0 0.0 1.0 13 20
+ 0.361616 1 0 ack 40 ------- 0 1.0 0.0 13 28
- 0.361616 1 0 ack 40 ------- 0 1.0 0.0 13 28
r 0.362448 0 1 tcp 1040 ------- 0 0.0 1.0 14 21
+ 0.362448 1 0 ack 40 ------- 0 1.0 0.0 14 29
- 0.362448 1 0 ack 40 ------- 0 1.0 0.0 14 29
r 0.378656 1 0 ack 40 ------- 0 1.0 0.0 7 22
+ 0.378656 0 1 tcp 1040 ------- 0 0.0 1.0 15 30
- 0.378656 0 1 tcp 1040 ------- 0 0.0 1.0 15 30
+ 0.378656 0 1 tcp 1040 ------- 0 0.0 1.0 16 31
r 0.379488 1 0 ack 40 ------- 0 1.0 0.0 8 23
+ 0.379488 0 1 tcp 1040 ------- 0 0.0 1.0 17 32
+ 0.379488 0 1 tcp 1040 ------- 0 0.0 1.0 18 33
- 0.379488 0 1 tcp 1040 ------- 0 0.0 1.0 16 31
r 0.38032 1 0 ack 40 ------- 0 1.0 0.0 9 24
+ 0.38032 0 1 tcp 1040 ------- 0 0.0 1.0 19 34
+ 0.38032 0 1 tcp 1040 ------- 0 0.0 1.0 20 35
- 0.38032 0 1 tcp 1040 ------- 0 0.0 1.0 17 32
r 0.381152 1 0 ack 40 ------- 0 1.0 0.0 10 25
+ 0.381152 0 1 tcp 1040 ------- 0 0.0 1.0 21 36
+ 0.381152 0 1 tcp 1040 ------- 0 0.0 1.0 22 37
- 0.381152 0 1 tcp 1040 ------- 0 0.0 1.0 18 33
r 0.381984 1 0 ack 40 ------- 0 1.0 0.0 11 26
+ 0.381984 0 1 tcp 1040 ------- 0 0.0 1.0 23 38
+ 0.381984 0 1 tcp 1040 ------- 0 0.0 1.0 24 39
- 0.381984 0 1 tcp 1040 ------- 0 0.0 1.0 19 34
r 0.382816 1 0 ack 40 ------- 0 1.0 0.0 12 27
+ 0.382816 0 1 tcp 1040 ------- 0 0.0 1.0 25 40
+ 0.382816 0 1 tcp 1040 ------- 0 0.0 1.0 26 41
- 0.382816 0 1 tcp 1040 ------- 0 0.0 1.0 20 35
r 0.383648 1 0 ack 40 ------- 0 1.0 0.0 13 28
+ 0.383648 0 1 tcp 1040 ------- 0 0.0 1.0 27 42
+ 0.383648 0 1 tcp 1040 ------- 0 0.0 1.0 28 43
- 0.383648 0 1 tcp 1040 ------- 0 0.0 1.0 21 36
r 0.38448 1 0 ack 40 ------- 0 1.0 0.0 14 29
+ 0.38448 0 1 tcp 1040 ------- 0 0.0 1.0 29 44
+ 0.38448 0 1 tcp 1040 ------- 0 0.0 1.0 30 45
- 0.38448 0 1 tcp 1040 ------- 0 0.0 1.0 22 37
- 0.385312 0 1 tcp 1040 ------- 0 0.0 1.0 23 38
- 0.386144 0 1 tcp 1040 ------- 0 0.0 1.0 24 39
- 0.386976 0 1 tcp 1040 ------- 0 0.0 1.0 25 40
- 0.387808 0 1 tcp 1040 ------- 0 0.0 1.0 26 41
- 0.38864 0 1 tcp 1040 ------- 0 0.0 1.0 27 42
- 0.389472 0 1 tcp 1040 ------- 0 0.0 1.0 28 43
- 0.390304 0 1 tcp 1040 ------- 0 0.0 1.0 29 44
- 0.391136 0 1 tcp 1040 ------- 0 0.0 1.0 30 45
r 0.401488 0 1 tcp 1040 ------- 0 0.0 1.0 15 30
+ 0.401488 1 0 ack 40 ------- 0 1.0 0.0 15 46
- 0.401488 1 0 ack 40 ------- 0 1.0 0.0 15 46
r 0.40232 0 1 tcp 1040 ------- 0 0.0 1.0 16 31
+ 0.40232 1 0 ack 40 ------- 0 1.0 0.0 16 47
- 0.40232 1 0 ack 40 ------- 0 1.0 0.0 16 47
r 0.403152 0 1 tcp 1040 ------- 0 0.0 1.0 17 32
+ 0.403152 1 0 ack 40 ------- 0 1.0 0.0 17 48
- 0.403152 1 0 ack 40 ------- 0 1.0 0.0 17 48
r 0.403984 0 1 tcp 1040 ------- 0 0.0 1.0 18 33
+ 0.403984 1 0 ack 40 ------- 0 1.0 0.0 18 49
- 0.403984 1 0 ack 40 ------- 0 1.0 0.0 18 49
r 0.404816 0 1 tcp 1040 ------- 0 0.0 1.0 19 34
+ 0.404816 1 0 ack 40 ------- 0 1.0 0.0 19 50
- 0.404816 1 0 ack 40 ------- 0 1.0 0.0 19 50
r 0.405648 0 1 tcp 1040 ------- 0 0.0 1.0 20 35
+ 0.405648 1 0 ack 40 ------- 0 1.0 0.0 20 51
- 0.405648 1 0 ack 40 ------- 0 1.0 0.0 20 51
r 0.40648 0 1 tcp 1040 ------- 0 0.0 1.0 21 36
+ 0.40648 1 0 ack 40 ------- 0 1.0 0.0 21 52
- 0.40648 1 0 ack 40 ------- 0 1.0 0.0 21 52
r 0.407312 0 1 tcp 1040 ------- 0 0.0 1.0 22 37
+ 0.407312 1 0 ack 40 ------- 0 1.0 0.0 22 53
- 0.407312 1 0 ack 40 ------- 0 1.0 0.0 22 53
r 0.408144 0 1 tcp 1040 ------- 0 0.0 1.0 23 38
+ 0.408144 1 0 ack 40 ------- 0 1.0 0.0 23 54
- 0.408144 1 0 ack 40 ------- 0 1.0 0.0 23 54
r 0.408976 0 1 tcp 1040 ------- 0 0.0 1.0 24 39
+ 0.408976 1 0 ack 40 ------- 0 1.0 0.0 24 55
- 0.408976 1 0 ack 40 ------- 0 1.0 0.0 24 55
r 0.409808 0 1 tcp 1040 ------- 0 0.0 1.0 25 40
+ 0.409808 1 0 ack 40 ------- 0 1.0 0.0 25 56
- 0.409808 1 0 ack 40 ------- 0 1.0 0.0 25 56
r 0.41064 0 1 tcp 1040 ------- 0 0.0 1.0 26 41
+ 0.41064 1 0 ack 40 ------- 0 1.0 0.0 26 57
- 0.41064 1 0 ack 40 ------- 0 1.0 0.0 26 57
r 0.411472 0 1 tcp 1040 ------- 0 0.0 1.0 27 42
+ 0.411472 1 0 ack 40 ------- 0 1.0 0.0 27 58
- 0.411472 1 0 ack 40 ------- 0 1.0 0.0 27 58
r 0.412304 0 1 tcp 1040 ------- 0 0.0 1.0 28 43
+ 0.412304 1 0 ack 40 ------- 0 1.0 0.0 28 59
- 0.412304 1 0 ack 40 ------- 0 1.0 0.0 28 59
r 0.413136 0 1 tcp 1040 ------- 0 0.0 1.0 29 44
+ 0.413136 1 0 ack 40 ------- 0 1.0 0.0 29 60
- 0.413136 1 0 ack 40 ------- 0 1.0 0.0 29 60
r 0.413968 0 1 tcp 1040 ------- 0 0.0 1.0 30 45
+ 0.413968 1 0 ack 40 ------- 0 1.0 0.0 30 61
- 0.413968 1 0 ack 40 ------- 0 1.0 0.0 30 61
r 0.42352 1 0 ack 40 ------- 0 1.0 0.0 15 46
+ 0.42352 0 1 tcp 1040 ------- 0 0.0 1.0 31 62
- 0.42352 0 1 tcp 1040 ------- 0 0.0 1.0 31 62
+ 0.42352 0 1 tcp 1040 ------- 0 0.0 1.0 32 63
r 0.424352 1 0 ack 40 ------- 0 1.0 0.0 16 47
+ 0.424352 0 1 tcp 1040 ------- 0 0.0 1.0 33 64
+ 0.424352 0 1 tcp 1040 ------- 0 0.0 1.0 34 65
- 0.424352 0 1 tcp 1040 ------- 0 0.0 1.0 32 63
r 0.425184 1 0 ack 40 ------- 0 1.0 0.0 17 48
+ 0.425184 0 1 tcp 1040 ------- 0 0.0 1.0 35 66
+ 0.425184 0 1 tcp 1040 ------- 0 0.0 1.0 36 67
- 0.425184 0 1 tcp 1040 ------- 0 0.0 1.0 33 64
r 0.426016 1 0 ack 40 ------- 0 1.0 0.0 18 49
+ 0.426016 0 1 tcp 1040 ------- 0 0.0 1.0 37 68
+ 0.426016 0 1 tcp 1040 ------- 0 0.0 1.0 38 69
- 0.426016 0 1 tcp 1040 ------- 0 0.0 1.0 34 65
r 0.426848 1 0 ack 40 ------- 0 1.0 0.0 19 50
+ 0.426848 0 1 tcp 1040 ------- 0 0.0 1.0 39 70
- 0.426848 0 1 tcp 1040 ------- 0 0.0 1.0 35 66
r 0.42768 1 0 ack 40 ------- 0 1.0 0.0 20 51
+ 0.42768 0 1 tcp 1040 ------- 0 0.0 1.0 40 71
- 0.42768 0 1 tcp 1040 ------- 0 0.0 1.0 36 67
r 0.428512 1 0 ack 40 ------- 0 1.0 0.0 21 52
+ 0.428512 0 1 tcp 1040 ------- 0 0.0 1.0 41 72
- 0.428512 0 1 tcp 1040 ------- 0 0.0 1.0 37 68
r 0.429344 1 0 ack 40 ------- 0 1.0 0.0 22 53
+ 0.429344 0 1 tcp 1040 ------- 0 0.0 1.0 42 73
- 0.429344 0 1 tcp 1040 ------- 0 0.0 1.0 38 69
r 0.430176 1 0 ack 40 ------- 0 1.0 0.0 23 54
+ 0.430176 0 1 tcp 1040 ------- 0 0.0 1.0 43 74
- 0.430176 0 1 tcp 1040 ------- 0 0.0 1.0 39 70
r 0.431008 1 0 ack 40 ------- 0 1.0 0.0 24 55
+ 0.431008 0 1 tcp 1040 ------- 0 0.0 1.0 44 75
- 0.431008 0 1 tcp 1040 ------- 0 0.0 1.0 40 71
r 0.43184 1 0 ack 40 ------- 0 1.0 0.0 25 56
+ 0.43184 0 1 tcp 1040 ------- 0 0.0 1.0 45 76
- 0.43184 0 1 tcp 1040 ------- 0 0.0 1.0 41 72
r 0.432672 1 0 ack 40 ------- 0 1.0 0.0 26 57
+ 0.432672 0 1 tcp 1040 ------- 0 0.0 1.0 46 77
- 0.432672 0 1 tcp 1040 ------- 0 0.0 1.0 42 73
r 0.433504 1 0 ack 40 ------- 0 1.0 0.0 27 58
+ 0.433504 0 1 tcp 1040 ------- 0 0.0 1.0 47 78
- 0.433504 0 1 tcp 1040 ------- 0 0.0 1.0 43 74
r 0.434336 1 0 ack 40 ------- 0 1.0 0.0 28 59
+ 0.434336 0 1 tcp 1040 ------- 0 0.0 1.0 48 79
- 0.434336 0 1 tcp 1040 ------- 0 0.0 1.0 44 75
r 0.435168 1 0 ack 40 ------- 0 1.0 0.0 29 60
+ 0.435168 0 1 tcp 1040 ------- 0 0.0 1.0 49 80
- 0.435168 0 1 tcp 1040 ------- 0 0.0 1.0 45 76
r 0.436 1 0 ack 40 ------- 0 1.0 0.0 30 61
+ 0.436 0 1 tcp 1040 ------- 0 0.0 1.0 50 81
- 0.436 0 1 tcp 1040 ------- 0 0.0 1.0 46 77
- 0.436832 0 1 tcp 1040 ------- 0 0.0 1.0 47 78
- 0.437664 0 1 tcp 1040 ------- 0 0.0 1.0 48 79
- 0.438496 0 1 tcp 1040 ------- 0 0.0 1.0 49 80
- 0.439328 0 1 tcp 1040 ------- 0 0.0 1.0 50 81
r 0.446352 0 1 tcp 1040 ------- 0 0.0 1.0 31 62
+ 0.446352 1 0 ack 40 ------- 0 1.0 0.0 31 82
- 0.446352 1 0 ack 40 ------- 0 1.0 0.0 31 82
r 0.447184 0 1 tcp 1040 ------- 0 0.0 1.0 32 63
+ 0.447184 1 0 ack 40 ------- 0 1.0 0.0 32 83
- 0.447184 1 0 ack 40 ------- 0 1.0 0.0 32 83
r 0.448016 0 1 tcp 1040 ------- 0 0.0 1.0 33 64
+ 0.448016 1 0 ack 40 ------- 0 1.0 0.0 33 84
- 0.448016 1 0 ack 40 ------- 0 1.0 0.0 33 84
r 0.448848 0 1 tcp 1040 ------- 0 0.0 1.0 34 65
+ 0.448848 1 0 ack 40 ------- 0 1.0 0.0 34 85
- 0.448848 1 0 ack 40 ------- 0 1.0 0.0 34 85
r 0.44968 0 1 tcp 1040 ------- 0 0.0 1.0 35 66
+ 0.44968 1 0 ack 40 ------- 0 1.0 0.0 35 86
- 0.44968 1 0 ack 40 ------- 0 1.0 0.0 35 86
r 0.450512 0 1 tcp 1040 ------- 0 0.0 1.0 36 67
+ 0.450512 1 0 ack 40 ------- 0 1.0 0.0 36 87
- 0.450512 1 0 ack 40 ------- 0 1.0 0.0 36 87
r 0.451344 0 1 tcp 1040 ------- 0 0.0 1.0 37 68
+ 0.451344 1 0 ack 40 ------- 0 1.0 0.0 37 88
- 0.451344 1 0 ack 40 ------- 0 1.0 0.0 37 88
r 0.452176 0 1 tcp 1040 ------- 0 0.0 1.0 38 69
+ 0.452176 1 0 ack 40 ------- 0 1.0 0.0 38 89
- 0.452176 1 0 ack 40 ------- 0 1.0 0.0 38 89
r 0.453008 0 1 tcp 1040 ------- 0 0.0 1.0 39 70
+ 0.453008 1 0 ack 40 ------- 0 1.0 0.0 39 90
- 0.453008 1 0 ack 40 ------- 0 1.0 0.0 39 90
r 0.45384 0 1 tcp 1040 ------- 0 0.0 1.0 40 71
+ 0.45384 1 0 ack 40 ------- 0 1.0 0.0 40 91
- 0.45384 1 0 ack 40 ------- 0 1.0 0.0 40 91
r 0.454672 0 1 tcp 1040 ------- 0 0.0 1.0 41 72
+ 0.454672 1 0 ack 40 ------- 0 1.0 0.0 41 92
- 0.454672 1 0 ack 40 ------- 0 1.0 0.0 41 92
r 0.455504 0 1 tcp 1040 ------- 0 0.0 1.0 42 73
+ 0.455504 1 0 ack 40 ------- 0 1.0 0.0 42 93
- 0.455504 1 0 ack 40 ------- 0 1.0 0.0 42 93
r 0.456336 0 1 tcp 1040 ------- 0 0.0 1.0 43 74
+ 0.456336 1 0 ack 40 ------- 0 1.0 0.0 43 94
- 0.456336 1 0 ack 40 ------- 0 1.0 0.0 43 94
r 0.457168 0 1 tcp 1040 ------- 0 0.0 1.0 44 75
+ 0.457168 1 0 ack 40 ------- 0 1.0 0.0 44 95
- 0.457168 1 0 ack 40 ------- 0 1.0 0.0 44 95
r 0.458 0 1 tcp 1040 ------- 0 0.0 1.0 45 76
+ 0.458 1 0 ack 40 ------- 0 1.0 0.0 45 96
- 0.458 1 0 ack 40 ------- 0 1.0 0.0 45 96
r 0.458832 0 1 tcp 1040 ------- 0 0.0 1.0 46 77
+ 0.458832 1 0 ack 40 ------- 0 1.0 0.0 46 97
- 0.458832 1 0 ack 40 ------- 0 1.0 0.0 46 97
r 0.459664 0 1 tcp 1040 ------- 0 0.0 1.0 47 78
+ 0.459664 1 0 ack 40 ------- 0 1.0 0.0 47 98
- 0.459664 1 0 ack 40 ------- 0 1.0 0.0 47 98
r 0.460496 0 1 tcp 1040 ------- 0 0.0 1.0 48 79
+ 0.460496 1 0 ack 40 ------- 0 1.0 0.0 48 99
- 0.460496 1 0 ack 40 ------- 0 1.0 0.0 48 99
r 0.461328 0 1 tcp 1040 ------- 0 0.0 1.0 49 80
+ 0.461328 1 0 ack 40 ------- 0 1.0 0.0 49 100
- 0.461328 1 0 ack 40 ------- 0 1.0 0.0 49 100
r 0.46216 0 1 tcp 1040 ------- 0 0.0 1.0 50 81
+ 0.46216 1 0 ack 40 ------- 0 1.0 0.0 50 101
- 0.46216 1 0 ack 40 ------- 0 1.0 0.0 50 101
r 0.468384 1 0 ack 40 ------- 0 1.0 0.0 31 82
+ 0.468384 0 1 tcp 1040 ------- 0 0.0 1.0 51 102
- 0.468384 0 1 tcp 1040 ------- 0 0.0 1.0 51 102
r 0.469216 1 0 ack 40 ------- 0 1.0 0.0 32 83
+ 0.469216 0 1 tcp 1040 ------- 0 0.0 1.0 52 103
- 0.469216 0 1 tcp 1040 ------- 0 0.0 1.0 52 103
r 0.470048 1 0 ack 40 ------- 0 1.0 0.0 33 84
+ 0.470048 0 1 tcp 1040 ------- 0 0.0 1.0 53 104
- 0.470048 0 1 tcp 1040 ------- 0 0.0 1.0 53 104
r 0.47088 1 0 ack 40 ------- 0 1.0 0.0 34 85
+ 0.47088 0 1 tcp 1040 ------- 0 0.0 1.0 54 105
- 0.47088 0 1 tcp 1040 ------- 0 0.0 1.0 54 105
r 0.471712 1 0 ack 40 ------- 0 1.0 0.0 35 86
+ 0.471712 0 1 tcp 1040 ------- 0 0.0 1.0 55 106
- 0.471712 0 1 tcp 1040 ------- 0 0.0 1.0 55 106
r 0.472544 1 0 ack 40 ------- 0 1.0 0.0 36 87
+ 0.472544 0 1 tcp 1040 ------- 0 0.0 1.0 56 107
- 0.472544 0 1 tcp 1040 ------- 0 0.0 1.0 56 107
r 0.473376 1 0 ack 40 ------- 0 1.0 0.0 37 88
+ 0.473376 0 1 tcp 1040 ------- 0 0.0 1.0 57 108
- 0.473376 0 1 tcp 1040 ------- 0 0.0 1.0 57 108
r 0.474208 1 0 ack 40 ------- 0 1.0 0.0 38 89
+ 0.474208 0 1 tcp 1040 ------- 0 0.0 1.0 58 109
- 0.474208 0 1 tcp 1040 ------- 0 0.0 1.0 58 109
r 0.47504 1 0 ack 40 ------- 0 1.0 0.0 39 90
+ 0.47504 0 1 tcp 1040 ------- 0 0.0 1.0 59 110
- 0.47504 0 1 tcp 1040 ------- 0 0.0 1.0 59 110
r 0.475872 1 0 ack 40 ------- 0 1.0 0.0 40 91
+ 0.475872 0 1 tcp 1040 ------- 0 0.0 1.0 60 111
- 0.475872 0 1 tcp 1040 ------- 0 0.0 1.0 60 111
r 0.476704 1 0 ack 40 ------- 0 1.0 0.0 41 92
+ 0.476704 0 1 tcp 1040 ------- 0 0.0 1.0 61 112
- 0.476704 0 1 tcp 1040 ------- 0 0.0 1.0 61 112
r 0.477536 1 0 ack 40 ------- 0 1.0 0.0 42 93
+ 0.477536 0 1 tcp 1040 ------- 0 0.0 1.0 62 113
- 0.477536 0 1 tcp 1040 ------- 0 0.0 1.0 62 113
r 0.478368 1 0 ack 40 ------- 0 1.0 0.0 43 94
+ 0.478368 0 1 tcp 1040 ------- 0 0.0 1.0 63 114
- 0.478368 0 1 tcp 1040 ------- 0 0.0 1.0 63 114
r 0.4792 1 0 ack 40 ------- 0 1.0 0.0 44 95
+ 0.4792 0 1 tcp 1040 ------- 0 0.0 1.0 64 115
- 0.4792 0 1 tcp 1040 ------- 0 0.0 1.0 64 115
r 0.480032 1 0 ack 40 ------- 0 1.0 0.0 45 96
+ 0.480032 0 1 tcp 1040 ------- 0 0.0 1.0 65 116
- 0.480032 0 1 tcp 1040 ------- 0 0.0 1.0 65 116
r 0.480864 1 0 ack 40 ------- 0 1.0 0.0 46 97
+ 0.480864 0 1 tcp 1040 ------- 0 0.0 1.0 66 117
- 0.480864 0 1 tcp 1040 ------- 0 0.0 1.0 66 117
r 0.481696 1 0 ack 40 ------- 0 1.0 0.0 47 98
+ 0.481696 0 1 tcp 1040 ------- 0 0.0 1.0 67 118
- 0.481696 0 1 tcp 1040 ------- 0 0.0 1.0 67 118
r 0.482528 1 0 ack 40 ------- 0 1.0 0.0 48 99
+ 0.482528 0 1 tcp 1040 ------- 0 0.0 1.0 68 119
- 0.482528 0 1 tcp 1040 ------- 0 0.0 1.0 68 119
r 0.48336 1 0 ack 40 ------- 0 1.0 0.0 49 100
+ 0.48336 0 1 tcp 1040 ------- 0 0.0 1.0 69 120
- 0.48336 0 1 tcp 1040 ------- 0 0.0 1.0 69 120
r 0.484192 1 0 ack 40 ------- 0 1.0 0.0 50 101
+ 0.484192 0 1 tcp 1040 ------- 0 0.0 1.0 70 121
- 0.484192 0 1 tcp 1040 ------- 0 0.0 1.0 70 121
r 0.491216 0 1 tcp 1040 ------- 0 0.0 1.0 51 102
+ 0.491216 1 0 ack 40 ------- 0 1.0 0.0 51 122
- 0.491216 1 0 ack 40 ------- 0 1.0 0.0 51 122
r 0.492048 0 1 tcp 1040 ------- 0 0.0 1.0 52 103
+ 0.492048 1 0 ack 40 ------- 0 1.0 0.0 52 123
- 0.492048 1 0 ack 40 ------- 0 1.0 0.0 52 123
r 0.49288 0 1 tcp 1040 ------- 0 0.0 1.0 53 104
+ 0.49288 1 0 ack 40 ------- 0 1.0 0.0 53 124
- 0.49288 1 0 ack 40 ------- 0 1.0 0.0 53 124
r 0.493712 0 1 tcp 1040 ------- 0 0.0 1.0 54 105
+ 0.493712 1 0 ack 40 ------- 0 1.0 0.0 54 125
- 0.493712 1 0 ack 40 ------- 0 1.0 0.0 54 125
r 0.494544 0 1 tcp 1040 ------- 0 0.0 1.0 55 106
+ 0.494544 1 0 ack 40 ------- 0 1.0 0.0 55 126
- 0.494544 1 0 ack 40 ------- 0 1.0 0.0 55 126
r 0.495376 0 1 tcp 1040 ------- 0 0.0 1.0 56 107
+ 0.495376 1 0 ack 40 ------- 0 1.0 0.0 56 127
- 0.495376 1 0 ack 40 ------- 0 1.0 0.0 56 127
r 0.496208 0 1 tcp 1040 ------- 0 0.0 1.0 57 108
+ 0.496208 1 0 ack 40 ------- 0 1.0 0.0 57 128
- 0.496208 1 0 ack 40 ------- 0 1.0 0.0 57 128
r 0.49704 0 1 tcp 1040 ------- 0 0.0 1.0 58 109
+ 0.49704 1 0 ack 40 ------- 0 1.0 0.0 58 129
- 0.49704 1 0 ack 40 ------- 0 1.0 0.0 58 129
r 0.497872 0 1 tcp 1040 ------- 0 0.0 1.0 59 110
+ 0.497872 1 0 ack 40 ------- 0 1.0 0.0 59 130
- 0.497872 1 0 ack 40 ------- 0 1.0 0.0 59 130
r 0.498704 0 1 tcp 1040 ------- 0 0.0 1.0 60 111
+ 0.498704 1 0 ack 40 ------- 0 1.0 0.0 60 131
- 0.498704 1 0 ack 40 ------- 0 1.0 0.0 60 131
r 0.499536 0 1 tcp 1040 ------- 0 0.0 1.0 61 112
+ 0.499536 1 0 ack 40 ------- 0 1.0 0.0 61 132
- 0.499536 1 0 ack 40 ------- 0 1.0 0.0 61 132
r 0.500368 0 1 tcp 1040 ------- 0 0.0 1.0 62 113
+ 0.500368 1 0 ack 40 ------- 0 1.0 0.0 62 133
- 0.500368 1 0 ack 40 ------- 0 1.0 0.0 62 133
r 0.5012 0 1 tcp 1040 ------- 0 0.0 1.0 63 114
+ 0.5012 1 0 ack 40 ------- 0 1.0 0.0 63 134
- 0.5012 1 0 ack 40 ------- 0 1.0 0.0 63 134
r 0.502032 0 1 tcp 1040 ------- 0 0.0 1.0 64 115
+ 0.502032 1 0 ack 40 ------- 0 1.0 0.0 64 135
- 0.502032 1 0 ack 40 ------- 0 1.0 0.0 64 135
r 0.502864 0 1 tcp 1040 ------- 0 0.0 1.0 65 116
+ 0.502864 1 0 ack 40 ------- 0 1.0 0.0 65 136
- 0.502864 1 0 ack 40 ------- 0 1.0 0.0 65 136
r 0.503696 0 1 tcp 1040 ------- 0 0.0 1.0 66 117
+ 0.503696 1 0 ack 40 ------- 0 1.0 0.0 66 137
- 0.503696 1 0 ack 40 ------- 0 1.0 0.0 66 137
r 0.504528 0 1 tcp 1040 ------- 0 0.0 1.0 67 118
+ 0.504528 1 0 ack 40 ------- 0 1.0 0.0 67 138
- 0.504528 1 0 ack 40 ------- 0 1.0 0.0 67 138
r 0.50536 0 1 tcp 1040 ------- 0 0.0 1.0 68 119
+ 0.50536 1 0 ack 40 ------- 0 1.0 0.0 68 139
- 0.50536 1 0 ack 40 ------- 0 1.0 0.0 68 139
r 0.506192 0 1 tcp 1040 ------- 0 0.0 1.0 69 120
+ 0.506192 1 0 ack 40 ------- 0 1.0 0.0 69 140
- 0.506192 1 0 ack 40 ------- 0 1.0 0.0 69 140
r 0.507024 0 1 tcp 1040 ------- 0 0.0 1.0 70 121
+ 0.507024 1 0 ack 40 ------- 0 1.0 0.0 70 141
- 0.507024 1 0 ack 40 ------- 0 1.0 0.0 70 141
r 0.513248 1 0 ack 40 ------- 0 1.0 0.0 51 122
+ 0.513248 0 1 tcp 1040 ------- 0 0.0 1.0 71 142
- 0.513248 0 1 tcp 1040 ------- 0 0.0 1.0 71 142
r 0.51408 1 0 ack 40 ------- 0 1.0 0.0 52 123
+ 0.51408 0 1 tcp 1040 ------- 0 0.0 1.0 72 143
- 0.51408 0 1 tcp 1040 ------- 0 0.0 1.0 72 143
r 0.514912 1 0 ack 40 ------- 0 1.0 0.0 53 124
+ 0.514912 0 1 tcp 1040 ------- 0 0.0 1.0 73 144
- 0.514912 0 1 tcp 1040 ------- 0 0.0 1.0 73 144
r 0.515744 1 0 ack 40 ------- 0 1.0 0.0 54 125
+ 0.515744 0 1 tcp 1040 ------- 0 0.0 1.0 74 145
- 0.515744 0 1 tcp 1040 ------- 0 0.0 1.0 74 145
r 0.516576 1 0 ack 40 ------- 0 1.0 0.0 55 126
+ 0.516576 0 1 tcp 1040 ------- 0 0.0 1.0 75 146
- 0.516576 0 1 tcp 1040 ------- 0 0.0 1.0 75 146
r 0.517408 1 0 ack 40 ------- 0 1.0 0.0 56 127
+ 0.517408 0 1 tcp 1040 ------- 0 0.0 1.0 76 147
- 0.517408 0 1 tcp 1040 ------- 0 0.0 1.0 76 147
r 0.51824 1 0 ack 40 ------- 0 1.0 0.0 57 128
+ 0.51824 0 1 tcp 1040 ------- 0 0.0 1.0 77 148
- 0.51824 0 1 tcp 1040 ------- 0 0.0 1.0 77 148
r 0.519072 1 0 ack 40 ------- 0 1.0 0.0 58 129
+ 0.519072 0 1 tcp 1040 ------- 0 0.0 1.0 78 149
- 0.519072 0 1 tcp 1040 ------- 0 0.0 1.0 78 149
r 0.519904 1 0 ack 40 ------- 0 1.0 0.0 59 130
+ 0.519904 0 1 tcp 1040 ------- 0 0.0 1.0 79 150
- 0.519904 0 1 tcp 1040 ------- 0 0.0 1.0 79 150
r 0.520736 1 0 ack 40 ------- 0 1.0 0.0 60 131
+ 0.520736 0 1 tcp 1040 ------- 0 0.0 1.0 80 151
- 0.520736 0 1 tcp 1040 ------- 0 0.0 1.0 80 151
r 0.521568 1 0 ack 40 ------- 0 1.0 0.0 61 132
+ 0.521568 0 1 tcp 1040 ------- 0 0.0 1.0 81 152
- 0.521568 0 1 tcp 1040 ------- 0 0.0 1.0 81 152
r 0.5224 1 0 ack 40 ------- 0 1.0 0.0 62 133
+ 0.5224 0 1 tcp 1040 ------- 0 0.0 1.0 82 153
- 0.5224 0 1 tcp 1040 ------- 0 0.0 1.0 82 153
r 0.523232 1 0 ack 40 ------- 0 1.0 0.0 63 134
+ 0.523232 0 1 tcp 1040 ------- 0 0.0 1.0 83 154
- 0.523232 0 1 tcp 1040 ------- 0 0.0 1.0 83 154
r 0.524064 1 0 ack 40 ------- 0 1.0 0.0 64 135
+ 0.524064 0 1 tcp 1040 ------- 0 0.0 1.0 84 155
- 0.524064 0 1 tcp 1040 ------- 0 0.0 1.0 84 155
r 0.524896 1 0 ack 40 ------- 0 1.0 0.0 65 136
+ 0.524896 0 1 tcp 1040 ------- 0 0.0 1.0 85 156
- 0.524896 0 1 tcp 1040 ------- 0 0.0 1.0 85 156
r 0.525728 1 0 ack 40 ------- 0 1.0 0.0 66 137
+ 0.525728 0 1 tcp 1040 ------- 0 0.0 1.0 86 157
- 0.525728 0 1 tcp 1040 ------- 0 0.0 1.0 86 157
r 0.52656 1 0 ack 40 ------- 0 1.0 0.0 67 138
+ 0.52656 0 1 tcp 1040 ------- 0 0.0 1.0 87 158
- 0.52656 0 1 tcp 1040 ------- 0 0.0 1.0 87 158
r 0.527392 1 0 ack 40 ------- 0 1.0 0.0 68 139
+ 0.527392 0 1 tcp 1040 ------- 0 0.0 1.0 88 159
- 0.527392 0 1 tcp 1040 ------- 0 0.0 1.0 88 159
r 0.528224 1 0 ack 40 ------- 0 1.0 0.0 69 140
+ 0.528224 0 1 tcp 1040 ------- 0 0.0 1.0 89 160
- 0.528224 0 1 tcp 1040 ------- 0 0.0 1.0 89 160
r 0.529056 1 0 ack 40 ------- 0 1.0 0.0 70 141
+ 0.529056 0 1 tcp 1040 ------- 0 0.0 1.0 90 161
- 0.529056 0 1 tcp 1040 ------- 0 0.0 1.0 90 161
r 0.53608 0 1 tcp 1040 ------- 0 0.0 1.0 71 142
+ 0.53608 1 0 ack 40 ------- 0 1.0 0.0 71 162
- 0.53608 1 0 ack 40 ------- 0 1.0 0.0 71 162
r 0.536912 0 1 tcp 1040 ------- 0 0.0 1.0 72 143
+ 0.536912 1 0 ack 40 ------- 0 1.0 0.0 72 163
- 0.536912 1 0 ack 40 ------- 0 1.0 0.0 72 163
r 0.537744 0 1 tcp 1040 ------- 0 0.0 1.0 73 144
+ 0.537744 1 0 ack 40 ------- 0 1.0 0.0 73 164
- 0.537744 1 0 ack 40 ------- 0 1.0 0.0 73 164
r 0.538576 0 1 tcp 1040 ------- 0 0.0 1.0 74 145
+ 0.538576 1 0 ack 40 ------- 0 1.0 0.0 74 165
- 0.538576 1 0 ack 40 ------- 0 1.0 0.0 74 165
r 0.539408 0 1 tcp 1040 ------- 0 0.0 1.0 75 146
+ 0.539408 1 0 ack 40 ------- 0 1.0 0.0 75 166
- 0.539408 1 0 ack 40 ------- 0 1.0 0.0 75 166
r 0.54024 0 1 tcp 1040 ------- 0 0.0 1.0 76 147
+ 0.54024 1 0 ack 40 ------- 0 1.0 0.0 76 167
- 0.54024 1 0 ack 40 ------- 0 1.0 0.0 76 167
r 0.541072 0 1 tcp 1040 ------- 0 0.0 1.0 77 148
+ 0.541072 1 0 ack 40 ------- 0 1.0 0.0 77 168
- 0.541072 1 0 ack 40 ------- 0 1.0 0.0 77 168
r 0.541904 0 1 tcp 1040 ------- 0 0.0 1.0 78 149
+ 0.541904 1 0 ack 40 ------- 0 1.0 0.0 78 169
- 0.541904 1 0 ack 40 ------- 0 1.0 0.0 78 169
r 0.542736 0 1 tcp 1040 ------- 0 0.0 1.0 79 150
+ 0.542736 1 0 ack 40 ------- 0 1.0 0.0 79 170
- 0.542736 1 0 ack 40 ------- 0 1.0 0.0 79 170
r 0.543568 0 1 tcp 1040 ------- 0 0.0 1.0 80 151
+ 0.543568 1 0 ack 40 ------- 0 1.0 0.0 80 171
- 0.543568 1 0 ack 40 ------- 0 1.0 0.0 80 171
r 0.5444 0 1 tcp 1040 ------- 0 0.0 1.0 81 152
+ 0.5444 1 0 ack 40 ------- 0 1.0 0.0 81 172
- 0.5444 1 0 ack 40 ------- 0 1.0 0.0 81 172
r 0.545232 0 1 tcp 1040 ------- 0 0.0 1.0 82 153
+ 0.545232 1 0 ack 40 ------- 0 1.0 0.0 82 173
- 0.545232 1 0 ack 40 ------- 0 1.0 0.0 82 173
r 0.546064 0 1 tcp 1040 ------- 0 0.0 1.0 83 154
+ 0.546064 1 0 ack 40 ------- 0 1.0 0.0 83 174
- 0.546064 1 0 ack 40 ------- 0 1.0 0.0 83 174
r 0.546896 0 1 tcp 1040 ------- 0 0.0 1.0 84 155
+ 0.546896 1 0 ack 40 ------- 0 1.0 0.0 84 175
- 0.546896 1 0 ack 40 ------- 0 1.0 0.0 84 175
r 0.547728 0 1 tcp 1040 ------- 0 0.0 1.0 85 156
+ 0.547728 1 0 ack 40 ------- 0 1.0 0.0 85 176
- 0.547728 1 0 ack 40 ------- 0 1.0 0.0 85 176
r 0.54856 0 1 tcp 1040 ------- 0 0.0 1.0 86 157
+ 0.54856 1 0 ack 40 ------- 0 1.0 0.0 86 177
- 0.54856 1 0 ack 40 ------- 0 1.0 0.0 86 177
r 0.549392 0 1 tcp 1040 ------- 0 0.0 1.0 87 158
+ 0.549392 1 0 ack 40 ------- 0 1.0 0.0 87 178
- 0.549392 1 0 ack 40 ------- 0 1.0 0.0 87 178
r 0.550224 0 1 tcp 1040 ------- 0 0.0 1.0 88 159
+ 0.550224 1 0 ack 40 ------- 0 1.0 0.0 88 179
- 0.550224 1 0 ack 40 ------- 0 1.0 0.0 88 179
r 0.551056 0 1 tcp 1040 ------- 0 0.0 1.0 89 160
+ 0.551056 1 0 ack 40 ------- 0 1.0 0.0 89 180
- 0.551056 1 0 ack 40 ------- 0 1.0 0.0 89 180
r 0.551888 0 1 tcp 1040 ------- 0 0.0 1.0 90 161
+ 0.551888 1 0 ack 40 ------- 0 1.0 0.0 90 181
- 0.551888 1 0 ack 40 ------- 0 1.0 0.0 90 181
r 0.558112 1 0 ack 40 ------- 0 1.0 0.0 71 162
+ 0.558112 0 1 tcp 1040 ------- 0 0.0 1.0 91 182
- 0.558112 0 1 tcp 1040 ------- 0 0.0 1.0 91 182
r 0.558944 1 0 ack 40 ------- 0 1.0 0.0 72 163
+ 0.558944 0 1 tcp 1040 ------- 0 0.0 1.0 92 183
- 0.558944 0 1 tcp 1040 ------- 0 0.0 1.0 92 183
r 0.559776 1 0 ack 40 ------- 0 1.0 0.0 73 164
+ 0.559776 0 1 tcp 1040 ------- 0 0.0 1.0 93 184
- 0.559776 0 1 tcp 1040 ------- 0 0.0 1.0 93 184
r 0.560608 1 0 ack 40 ------- 0 1.0 0.0 74 165
+ 0.560608 0 1 tcp 1040 ------- 0 0.0 1.0 94 185
- 0.560608 0 1 tcp 1040 ------- 0 0.0 1.0 94 185
r 0.56144 1 0 ack 40 ------- 0 1.0 0.0 75 166
+ 0.56144 0 1 tcp 1040 ------- 0 0.0 1.0 95 186
- 0.56144 0 1 tcp 1040 ------- 0 0.0 1.0 95 186
r 0.562272 1 0 ack 40 ------- 0 1.0 0.0 76 167
+ 0.562272 0 1 tcp 1040 ------- 0 0.0 1.0 96 187
- 0.562272 0 1 tcp 1040 ------- 0 0.0 1.0 96 187
r 0.563104 1 0 ack 40 ------- 0 1.0 0.0 77 168
+ 0.563104 0 1 tcp 1040 ------- 0 0.0 1.0 97 188
- 0.563104 0 1 tcp 1040 ------- 0 0.0 1.0 97 188
r 0.563936 1 0 ack 40 ------- 0 1.0 0.0 78 169
+ 0.563936 0 1 tcp 1040 ------- 0 0.0 1.0 98 189
- 0.563936 0 1 tcp 1040 ------- 0 0.0 1.0 98 189
r 0.564768 1 0 ack 40 ------- 0 1.0 0.0 79 170
+ 0.564768 0 1 tcp 1040 ------- 0 0.0 1.0 99 190
- 0.564768 0 1 tcp 1040 ------- 0 0.0 1.0 99 190
r 0.5656 1 0 ack 40 ------- 0 1.0 0.0 80 171
+ 0.5656 0 1 tcp 1040 ------- 0 0.0 1.0 100 191
- 0.5656 0 1 tcp 1040 ------- 0 0.0 1.0 100 191
r 0.566432 1 0 ack 40 ------- 0 1.0 0.0 81 172
+ 0.566432 0 1 tcp 1040 ------- 0 0.0 1.0 101 192
- 0.566432 0 1 tcp 1040 ------- 0 0.0 1.0 101 192
r 0.567264 1 0 ack 40 ------- 0 1.0 0.0 82 173
+ 0.567264 0 1 tcp 1040 ------- 0 0.0 1.0 102 193
- 0.567264 0 1 tcp 1040 ------- 0 0.0 1.0 102 193
r 0.568096 1 0 ack 40 ------- 0 1.0 0.0 83 174
+ 0.568096 0 1 tcp 1040 ------- 0 0.0 1.0 103 194
- 0.568096 0 1 tcp 1040 ------- 0 0.0 1.0 103 194
r 0.568928 1 0 ack 40 ------- 0 1.0 0.0 84 175
+ 0.568928 0 1 tcp 1040 ------- 0 0.0 1.0 104 195
- 0.568928 0 1 tcp 1040 ------- 0 0.0 1.0 104 195
r 0.56976 1 0 ack 40 ------- 0 1.0 0.0 85 176
+ 0.56976 0 1 tcp 1040 ------- 0 0.0 1.0 105 196
- 0.56976 0 1 tcp 1040 ------- 0 0.0 1.0 105 196
r 0.570592 1 0 ack 40 ------- 0 1.0 0.0 86 177
+ 0.570592 0 1 tcp 1040 ------- 0 0.0 1.0 106 197
- 0.570592 0 1 tcp 1040 ------- 0 0.0 1.0 106 197
r 0.571424 1 0 ack 40 ------- 0 1.0 0.0 87 178
+ 0.571424 0 1 tcp 1040 ------- 0 0.0 1.0 107 198
- 0.571424 0 1 tcp 1040 ------- 0 0.0 1.0 107 198
r 0.572256 1 0 ack 40 ------- 0 1.0 0.0 88 179
+ 0.572256 0 1 tcp 1040 ------- 0 0.0 1.0 108 199
- 0.572256 0 1 tcp 1040 ------- 0 0.0 1.0 108 199
r 0.573088 1 0 ack 40 ------- 0 1.0 0.0 89 180
+ 0.573088 0 1 tcp 1040 ------- 0 0.0 1.0 109 200
- 0.573088 0 1 tcp 1040 ------- 0 0.0 1.0 109 200
r 0.57392 1 0 ack 40 ------- 0 1.0 0.0 90 181
+ 0.57392 0 1 tcp 1040 ------- 0 0.0 1.0 110 201
- 0.57392 0 1 tcp 1040 ------- 0 0.0 1.0 110 201
r 0.580944 0 1 tcp 1040 ------- 0 0.0 1.0 91 182
+ 0.580944 1 0 ack 40 ------- 0 1.0 0.0 91 202
- 0.580944 1 0 ack 40 ------- 0 1.0 0.0 91 202
r 0.581776 0 1 tcp 1040 ------- 0 0.0 1.0 92 183
+ 0.581776 1 0 ack 40 ------- 0 1.0 0.0 92 203
- 0.581776 1 0 ack 40 ------- 0 1.0 0.0 92 203
r 0.582608 0 1 tcp 1040 ------- 0 0.0 1.0 93 184
+ 0.582608 1 0 ack 40 ------- 0 1.0 0.0 93 204
- 0.582608 1 0 ack 40 ------- 0 1.0 0.0 93 204
r 0.58344 0 1 tcp 1040 ------- 0 0.0 1.0 94 185
+ 0.58344 1 0 ack 40 ------- 0 1.0 0.0 94 205
- 0.58344 1 0 ack 40 ------- 0 1.0 0.0 94 205
r 0.584272 0 1 tcp 1040 ------- 0 0.0 1.0 95 186
+ 0.584272 1 0 ack 40 ------- 0 1.0 0.0 95 206
- 0.584272 1 0 ack 40 ------- 0 1.0 0.0 95 206
r 0.585104 0 1 tcp 1040 ------- 0 0.0 1.0 96 187
+ 0.585104 1 0 ack 40 ------- 0 1.0 0.0 96 207
- 0.585104 1 0 ack 40 ------- 0 1.0 0.0 96 207
r 0.585936 0 1 tcp 1040 ------- 0 0.0 1.0 97 188
+ 0.585936 1 0 ack 40 ------- 0 1.0 0.0 97 208
- 0.585936 1 0 ack 40 ------- 0 1.0 0.0 97 208
r 0.586768 0 1 tcp 1040 ------- 0 0.0 1.0 98 189
+ 0.586768 1 0 ack 40 ------- 0 1.0 0.0 98 209
- 0.586768 1 0 ack 40 ------- 0 1.0 0.0 98 209
r 0.5876 0 1 tcp 1040 ------- 0 0.0 1.0 99 190
+ 0.5876 1 0 ack 40 ------- 0 1.0 0.0 99 210
- 0.5876 1 0 ack 40 ------- 0 1.0 0.0 99 210
r 0.588432 0 1 tcp 1040 ------- 0 0.0 1.0 100 191
+ 0.588432 1 0 ack 40 ------- 0 1.0 0.0 100 211
- 0.588432 1 0 ack 40 ------- 0 1.0 0.0 100 211
r 0.589264 0 1 tcp 1040 ------- 0 0.0 1.0 101 192
+ 0.589264 1 0 ack 40 ------- 0 1.0 0.0 101 212
- 0.589264 1 0 ack 40 ------- 0 1.0 0.0 101 212
r 0.590096 0 1 tcp 1040 ------- 0 0.0 1.0 102 193
+ 0.590096 1 0 ack 40 ------- 0 1.0 0.0 102 213
- 0.590096 1 0 ack 40 ------- 0 1.0 0.0 102 213
r 0.590928 0 1 tcp 1040 ------- 0 0.0 1.0 103 194
+ 0.590928 1 0 ack 40 ------- 0 1.0 0.0 103 214
- 0.590928 1 0 ack 40 ------- 0 1.0 0.0 103 214
r 0.59176 0 1 tcp 1040 ------- 0 0.0 1.0 104 195
+ 0.59176 1 0 ack 40 ------- 0 1.0 0.0 104 215
- 0.59176 1 0 ack 40 ------- 0 1.0 0.0 104 215
r 0.592592 0 1 tcp 1040 ------- 0 0.0 1.0 105 196
+ 0.592592 1 0 ack 40 ------- 0 1.0 0.0 105 216
- 0.592592 1 0 ack 40 ------- 0 1.0 0.0 105 216
r 0.593424 0 1 tcp 1040 ------- 0 0.0 1.0 106 197
+ 0.593424 1 0 ack 40 ------- 0 1.0 0.0 106 217
- 0.593424 1 0 ack 40 ------- 0 1.0 0.0 106 217
r 0.594256 0 1 tcp 1040 ------- 0 0.0 1.0 107 198