V -t * -v 1.0a5 -a 0
A -t * -n 1 -p 0 -o 0x7fffffff -c 30 -a 1
A -t * -h 1 -m 1073741823 -s 0
n -t * -a 4 -s 4 -S UP -v circle -c black -i black
n -t * -a 0 -s 0 -S UP -v circle -c black -i black
n -t * -a 5 -s 5 -S UP -v circle -c black -i black
n -t * -a 1 -s 1 -S UP -v circle -c black -i black
n -t * -a 2 -s 2 -S UP -v circle -c black -i black
n -t * -a 3 -s 3 -S UP -v circle -c black -i black
l -t * -s 1 -d 0 -S UP -r 1500000 -D 0.0050000000000000001 -c black -o left-down
l -t * -s 2 -d 0 -S UP -r 1500000 -D 0.0050000000000000001 -c black -o left-up
l -t * -s 3 -d 5 -S UP -r 1500000 -D 0.0050000000000000001 -c black -o right-up
l -t * -s 4 -d 5 -S UP -r 1500000 -D 0.0050000000000000001 -c black -o right-down
l -t * -s 1 -d 4 -S UP -r 1500000 -D 0.0050000000000000001 -c black -o right
l -t * -s 2 -d 3 -S UP -r 1500000 -D 0.0050000000000000001 -c black -o right
+ -t 0.000169788487334637 -s 0 -d 1 -p rtProtoDV -e 6 -c 0 -i 0 -a 0 -x {0.2 1.1 -1 ------- null}
- -t 0.000169788487334637 -s 0 -d 1 -p rtProtoDV -e 6 -c 0 -i 0 -a 0 -x {0.2 1.1 -1 ------- null}
h -t 0.000169788487334637 -s 0 -d 1 -p rtProtoDV -e 6 -c 0 -i 0 -a 0 -x {0.2 1.1 -1 ------- null}
+ -t 0.000169788487334637 -s 0 -d 2 -p rtProtoDV -e 6 -c 0 -i 1 -a 0 -x {0.2 2.1 -1 ------- null}
- -t 0.000169788487334637 -s 0 -d 2 -p rtProtoDV -e 6 -c 0 -i 1 -a 0 -x {0.2 2.1 -1 ------- null}
h -t 0.000169788487334637 -s 0 -d 2 -p rtProtoDV -e 6 -c 0 -i 1 -a 0 -x {0.2 2.1 -1 ------- null}
r -t 0.00520178848733464 -s 0 -d 1 -p rtProtoDV -e 6 -c 0 -i 0 -a 0 -x {0.2 1.1 -1 ------- null}
+ -t 0.00520178848733464 -s 1 -d 0 -p rtProtoDV -e 6 -c 0 -i 2 -a 0 -x {1.1 0.2 -1 ------- null}
- -t 0.00520178848733464 -s 1 -d 0 -p rtProtoDV -e 6 -c 0 -i 2 -a 0 -x {1.1 0.2 -1 ------- null}
h -t 0.00520178848733464 -s 1 -d 0 -p rtProtoDV -e 6 -c 0 -i 2 -a 0 -x {1.1 0.2 -1 ------- null}
+ -t 0.00520178848733464 -s 1 -d 4 -p rtProtoDV -e 6 -c 0 -i 3 -a 0 -x {1.1 4.2 -1 ------- null}
- -t 0.00520178848733464 -s 1 -d 4 -p rtProtoDV -e 6 -c 0 -i 3 -a 0 -x {1.1 4.2 -1 ------- null}
h -t 0.00520178848733464 -s 1 -d 4 -p rtProtoDV -e 6 -c 0 -i 3 -a 0 -x {1.1 4.2 -1 ------- null}
r -t 0.00520178848733464 -s 0 -d 2 -p rtProtoDV -e 6 -c 0 -i 1 -a 0 -x {0.2 2.1 -1 ------- null}
+ -t 0.00520178848733464 -s 2 -d 0 -p rtProtoDV -e 6 -c 0 -i 4 -a 0 -x {2.1 0.2 -1 ------- null}
- -t 0.00520178848733464 -s 2 -d 0 -p rtProtoDV -e 6 -c 0 -i 4 -a 0 -x {2.1 0.2 -1 ------- null}
h -t 0.00520178848733464 -s 2 -d 0 -p rtProtoDV -e 6 -c 0 -i 4 -a 0 -x {2.1 0.2 -1 ------- null}
+ -t 0.00520178848733464 -s 2 -d 3 -p rtProtoDV -e 6 -c 0 -i 5 -a 0 -x {2.1 3.1 -1 ------- null}
- -t 0.00520178848733464 -s 2 -d 3 -p rtProtoDV -e 6 -c 0 -i 5 -a 0 -x {2.1 3.1 -1 ------- null}
h -t 0.00520178848733464 -s 2 -d 3 -p rtProtoDV -e 6 -c 0 -i 5 -a 0 -x {2.1 3.1 -1 ------- null}
+ -t 0.00710233021858257 -s 2 -d 0 -p rtProtoDV -e 6 -c 0 -i 6 -a 0 -x {2.1 0.2 -1 ------- null}
- -t 0.00710233021858257 -s 2 -d 0 -p rtProtoDV -e 6 -c 0 -i 6 -a 0 -x {2.1 0.2 -1 ------- null}
h -t 0.00710233021858257 -s 2 -d 0 -p rtProtoDV -e 6 -c 0 -i 6 -a 0 -x {2.1 0.2 -1 ------- null}
+ -t 0.00710233021858257 -s 2 -d 3 -p rtProtoDV -e 6 -c 0 -i 7 -a 0 -x {2.1 3.1 -1 ------- null}
- -t 0.00710233021858257 -s 2 -d 3 -p rtProtoDV -e 6 -c 0 -i 7 -a 0 -x {2.1 3.1 -1 ------- null}
h -t 0.00710233021858257 -s 2 -d 3 -p rtProtoDV -e 6 -c 0 -i 7 -a 0 -x {2.1 3.1 -1 ------- null}
r -t 0.0102337884873346 -s 1 -d 0 -p rtProtoDV -e 6 -c 0 -i 2 -a 0 -x {1.1 0.2 -1 ------- null}
+ -t 0.0102337884873346 -s 0 -d 1 -p rtProtoDV -e 6 -c 0 -i 8 -a 0 -x {0.2 1.1 -1 ------- null}
- -t 0.0102337884873346 -s 0 -d 1 -p rtProtoDV -e 6 -c 0 -i 8 -a 0 -x {0.2 1.1 -1 ------- null}
h -t 0.0102337884873346 -s 0 -d 1 -p rtProtoDV -e 6 -c 0 -i 8 -a 0 -x {0.2 1.1 -1 ------- null}
+ -t 0.0102337884873346 -s 0 -d 2 -p rtProtoDV -e 6 -c 0 -i 9 -a 0 -x {0.2 2.1 -1 ------- null}
- -t 0.0102337884873346 -s 0 -d 2 -p rtProtoDV -e 6 -c 0 -i 9 -a 0 -x {0.2 2.1 -1 ------- null}
h -t 0.0102337884873346 -s 0 -d 2 -p rtProtoDV -e 6 -c 0 -i 9 -a 0 -x {0.2 2.1 -1 ------- null}
r -t 0.0102337884873346 -s 1 -d 4 -p rtProtoDV -e 6 -c 0 -i 3 -a 0 -x {1.1 4.2 -1 ------- null}
+ -t 0.0102337884873346 -s 4 -d 1 -p rtProtoDV -e 6 -c 0 -i 10 -a 0 -x {4.2 1.1 -1 ------- null}
- -t 0.0102337884873346 -s 4 -d 1 -p rtProtoDV -e 6 -c 0 -i 10 -a 0 -x {4.2 1.1 -1 ------- null}
h -t 0.0102337884873346 -s 4 -d 1 -p rtProtoDV -e 6 -c 0 -i 10 -a 0 -x {4.2 1.1 -1 ------- null}
+ -t 0.0102337884873346 -s 4 -d 5 -p rtProtoDV -e 6 -c 0 -i 11 -a 0 -x {4.2 5.1 -1 ------- null}
- -t 0.0102337884873346 -s 4 -d 5 -p rtProtoDV -e 6 -c 0 -i 11 -a 0 -x {4.2 5.1 -1 ------- null}
h -t 0.0102337884873346 -s 4 -d 5 -p rtProtoDV -e 6 -c 0 -i 11 -a 0 -x {4.2 5.1 -1 ------- null}
r -t 0.0102337884873346 -s 2 -d 0 -p rtProtoDV -e 6 -c 0 -i 4 -a 0 -x {2.1 0.2 -1 ------- null}
+ -t 0.0102337884873346 -s 0 -d 1 -p rtProtoDV -e 6 -c 0 -i 12 -a 0 -x {0.2 1.1 -1 ------- null}
+ -t 0.0102337884873346 -s 0 -d 2 -p rtProtoDV -e 6 -c 0 -i 13 -a 0 -x {0.2 2.1 -1 ------- null}
r -t 0.0102337884873346 -s 2 -d 3 -p rtProtoDV -e 6 -c 0 -i 5 -a 0 -x {2.1 3.1 -1 ------- null}
+ -t 0.0102337884873346 -s 3 -d 2 -p rtProtoDV -e 6 -c 0 -i 14 -a 0 -x {3.1 2.1 -1 ------- null}
- -t 0.0102337884873346 -s 3 -d 2 -p rtProtoDV -e 6 -c 0 -i 14 -a 0 -x {3.1 2.1 -1 ------- null}
h -t 0.0102337884873346 -s 3 -d 2 -p rtProtoDV -e 6 -c 0 -i 14 -a 0 -x {3.1 2.1 -1 ------- null}
+ -t 0.0102337884873346 -s 3 -d 5 -p rtProtoDV -e 6 -c 0 -i 15 -a 0 -x {3.1 5.1 -1 ------- null}
- -t 0.0102337884873346 -s 3 -d 5 -p rtProtoDV -e 6 -c 0 -i 15 -a 0 -x {3.1 5.1 -1 ------- null}
h -t 0.0102337884873346 -s 3 -d 5 -p rtProtoDV -e 6 -c 0 -i 15 -a 0 -x {3.1 5.1 -1 ------- null}
- -t 0.0102657884873346 -s 0 -d 1 -p rtProtoDV -e 6 -c 0 -i 12 -a 0 -x {0.2 1.1 -1 ------- null}
h -t 0.0102657884873346 -s 0 -d 1 -p rtProtoDV -e 6 -c 0 -i 12 -a 0 -x {0.2 1.1 -1 ------- null}
- -t 0.0102657884873346 -s 0 -d 2 -p rtProtoDV -e 6 -c 0 -i 13 -a 0 -x {0.2 2.1 -1 ------- null}
h -t 0.0102657884873346 -s 0 -d 2 -p rtProtoDV -e 6 -c 0 -i 13 -a 0 -x {0.2 2.1 -1 ------- null}
r -t 0.0121343302185826 -s 2 -d 0 -p rtProtoDV -e 6 -c 0 -i 6 -a 0 -x {2.1 0.2 -1 ------- null}
r -t 0.0121343302185826 -s 2 -d 3 -p rtProtoDV -e 6 -c 0 -i 7 -a 0 -x {2.1 3.1 -1 ------- null}
r -t 0.0152657884873346 -s 0 -d 1 -p rtProtoDV -e 6 -c 0 -i 8 -a 0 -x {0.2 1.1 -1 ------- null}
r -t 0.0152657884873346 -s 0 -d 2 -p rtProtoDV -e 6 -c 0 -i 9 -a 0 -x {0.2 2.1 -1 ------- null}
+ -t 0.0152657884873346 -s 2 -d 0 -p rtProtoDV -e 6 -c 0 -i 16 -a 0 -x {2.1 0.2 -1 ------- null}
- -t 0.0152657884873346 -s 2 -d 0 -p rtProtoDV -e 6 -c 0 -i 16 -a 0 -x {2.1 0.2 -1 ------- null}
h -t 0.0152657884873346 -s 2 -d 0 -p rtProtoDV -e 6 -c 0 -i 16 -a 0 -x {2.1 0.2 -1 ------- null}
+ -t 0.0152657884873346 -s 2 -d 3 -p rtProtoDV -e 6 -c 0 -i 17 -a 0 -x {2.1 3.1 -1 ------- null}
- -t 0.0152657884873346 -s 2 -d 3 -p rtProtoDV -e 6 -c 0 -i 17 -a 0 -x {2.1 3.1 -1 ------- null}
h -t 0.0152657884873346 -s 2 -d 3 -p rtProtoDV -e 6 -c 0 -i 17 -a 0 -x {2.1 3.1 -1 ------- null}
r -t 0.0152657884873346 -s 4 -d 1 -p rtProtoDV -e 6 -c 0 -i 10 -a 0 -x {4.2 1.1 -1 ------- null}
+ -t 0.0152657884873346 -s 1 -d 0 -p rtProtoDV -e 6 -c 0 -i 18 -a 0 -x {1.1 0.2 -1 ------- null}
- -t 0.0152657884873346 -s 1 -d 0 -p rtProtoDV -e 6 -c 0 -i 18 -a 0 -x {1.1 0.2 -1 ------- null}
h -t 0.0152657884873346 -s 1 -d 0 -p rtProtoDV -e 6 -c 0 -i 18 -a 0 -x {1.1 0.2 -1 ------- null}
+ -t 0.0152657884873346 -s 1 -d 4 -p rtProtoDV -e 6 -c 0 -i 19 -a 0 -x {1.1 4.2 -1 ------- null}
- -t 0.0152657884873346 -s 1 -d 4 -p rtProtoDV -e 6 -c 0 -i 19 -a 0 -x {1.1 4.2 -1 ------- null}
h -t 0.0152657884873346 -s 1 -d 4 -p rtProtoDV -e 6 -c 0 -i 19 -a 0 -x {1.1 4.2 -1 ------- null}
r -t 0.0152657884873346 -s 4 -d 5 -p rtProtoDV -e 6 -c 0 -i 11 -a 0 -x {4.2 5.1 -1 ------- null}
+ -t 0.0152657884873346 -s 5 -d 3 -p rtProtoDV -e 6 -c 0 -i 20 -a 0 -x {5.1 3.1 -1 ------- null}
- -t 0.0152657884873346 -s 5 -d 3 -p rtProtoDV -e 6 -c 0 -i 20 -a 0 -x {5.1 3.1 -1 ------- null}
h -t 0.0152657884873346 -s 5 -d 3 -p rtProtoDV -e 6 -c 0 -i 20 -a 0 -x {5.1 3.1 -1 ------- null}
+ -t 0.0152657884873346 -s 5 -d 4 -p rtProtoDV -e 6 -c 0 -i 21 -a 0 -x {5.1 4.2 -1 ------- null}
- -t 0.0152657884873346 -s 5 -d 4 -p rtProtoDV -e 6 -c 0 -i 21 -a 0 -x {5.1 4.2 -1 ------- null}
h -t 0.0152657884873346 -s 5 -d 4 -p rtProtoDV -e 6 -c 0 -i 21 -a 0 -x {5.1 4.2 -1 ------- null}
r -t 0.0152657884873346 -s 3 -d 2 -p rtProtoDV -e 6 -c 0 -i 14 -a 0 -x {3.1 2.1 -1 ------- null}
+ -t 0.0152657884873346 -s 2 -d 0 -p rtProtoDV -e 6 -c 0 -i 22 -a 0 -x {2.1 0.2 -1 ------- null}
+ -t 0.0152657884873346 -s 2 -d 3 -p rtProtoDV -e 6 -c 0 -i 23 -a 0 -x {2.1 3.1 -1 ------- null}
r -t 0.0152657884873346 -s 3 -d 5 -p rtProtoDV -e 6 -c 0 -i 15 -a 0 -x {3.1 5.1 -1 ------- null}
+ -t 0.0152657884873346 -s 5 -d 3 -p rtProtoDV -e 6 -c 0 -i 24 -a 0 -x {5.1 3.1 -1 ------- null}
+ -t 0.0152657884873346 -s 5 -d 4 -p rtProtoDV -e 6 -c 0 -i 25 -a 0 -x {5.1 4.2 -1 ------- null}
r -t 0.0152977884873346 -s 0 -d 1 -p rtProtoDV -e 6 -c 0 -i 12 -a 0 -x {0.2 1.1 -1 ------- null}
+ -t 0.0152977884873346 -s 1 -d 0 -p rtProtoDV -e 6 -c 0 -i 26 -a 0 -x {1.1 0.2 -1 ------- null}
+ -t 0.0152977884873346 -s 1 -d 4 -p rtProtoDV -e 6 -c 0 -i 27 -a 0 -x {1.1 4.2 -1 ------- null}
r -t 0.0152977884873346 -s 0 -d 2 -p rtProtoDV -e 6 -c 0 -i 13 -a 0 -x {0.2 2.1 -1 ------- null}
- -t 0.0152977884873346 -s 2 -d 0 -p rtProtoDV -e 6 -c 0 -i 22 -a 0 -x {2.1 0.2 -1 ------- null}
h -t 0.0152977884873346 -s 2 -d 0 -p rtProtoDV -e 6 -c 0 -i 22 -a 0 -x {2.1 0.2 -1 ------- null}
- -t 0.0152977884873346 -s 2 -d 3 -p rtProtoDV -e 6 -c 0 -i 23 -a 0 -x {2.1 3.1 -1 ------- null}
h -t 0.0152977884873346 -s 2 -d 3 -p rtProtoDV -e 6 -c 0 -i 23 -a 0 -x {2.1 3.1 -1 ------- null}
- -t 0.0152977884873346 -s 1 -d 0 -p rtProtoDV -e 6 -c 0 -i 26 -a 0 -x {1.1 0.2 -1 ------- null}
h -t 0.0152977884873346 -s 1 -d 0 -p rtProtoDV -e 6 -c 0 -i 26 -a 0 -x {1.1 0.2 -1 ------- null}
- -t 0.0152977884873346 -s 1 -d 4 -p rtProtoDV -e 6 -c 0 -i 27 -a 0 -x {1.1 4.2 -1 ------- null}
h -t 0.0152977884873346 -s 1 -d 4 -p rtProtoDV -e 6 -c 0 -i 27 -a 0 -x {1.1 4.2 -1 ------- null}
- -t 0.0152977884873346 -s 5 -d 3 -p rtProtoDV -e 6 -c 0 -i 24 -a 0 -x {5.1 3.1 -1 ------- null}
h -t 0.0152977884873346 -s 5 -d 3 -p rtProtoDV -e 6 -c 0 -i 24 -a 0 -x {5.1 3.1 -1 ------- null}
- -t 0.0152977884873346 -s 5 -d 4 -p rtProtoDV -e 6 -c 0 -i 25 -a 0 -x {5.1 4.2 -1 ------- null}
h -t 0.0152977884873346 -s 5 -d 4 -p rtProtoDV -e 6 -c 0 -i 25 -a 0 -x {5.1 4.2 -1 ------- null}
r -t 0.0202977884873346 -s 2 -d 0 -p rtProtoDV -e 6 -c 0 -i 16 -a 0 -x {2.1 0.2 -1 ------- null}
r -t 0.0202977884873346 -s 2 -d 3 -p rtProtoDV -e 6 -c 0 -i 17 -a 0 -x {2.1 3.1 -1 ------- null}
+ -t 0.0202977884873346 -s 3 -d 2 -p rtProtoDV -e 6 -c 0 -i 28 -a 0 -x {3.1 2.1 -1 ------- null}
- -t 0.0202977884873346 -s 3 -d 2 -p rtProtoDV -e 6 -c 0 -i 28 -a 0 -x {3.1 2.1 -1 ------- null}
h -t 0.0202977884873346 -s 3 -d 2 -p rtProtoDV -e 6 -c 0 -i 28 -a 0 -x {3.1 2.1 -1 ------- null}
+ -t 0.0202977884873346 -s 3 -d 5 -p rtProtoDV -e 6 -c 0 -i 29 -a 0 -x {3.1 5.1 -1 ------- null}
- -t 0.0202977884873346 -s 3 -d 5 -p rtProtoDV -e 6 -c 0 -i 29 -a 0 -x {3.1 5.1 -1 ------- null}
h -t 0.0202977884873346 -s 3 -d 5 -p rtProtoDV -e 6 -c 0 -i 29 -a 0 -x {3.1 5.1 -1 ------- null}
r -t 0.0202977884873346 -s 1 -d 0 -p rtProtoDV -e 6 -c 0 -i 18 -a 0 -x {1.1 0.2 -1 ------- null}
+ -t 0.0202977884873346 -s 0 -d 1 -p rtProtoDV -e 6 -c 0 -i 30 -a 0 -x {0.2 1.1 -1 ------- null}
- -t 0.0202977884873346 -s 0 -d 1 -p rtProtoDV -e 6 -c 0 -i 30 -a 0 -x {0.2 1.1 -1 ------- null}
h -t 0.0202977884873346 -s 0 -d 1 -p rtProtoDV -e 6 -c 0 -i 30 -a 0 -x {0.2 1.1 -1 ------- null}
+ -t 0.0202977884873346 -s 0 -d 2 -p rtProtoDV -e 6 -c 0 -i 31 -a 0 -x {0.2 2.1 -1 ------- null}
- -t 0.0202977884873346 -s 0 -d 2 -p rtProtoDV -e 6 -c 0 -i 31 -a 0 -x {0.2 2.1 -1 ------- null}
h -t 0.0202977884873346 -s 0 -d 2 -p rtProtoDV -e 6 -c 0 -i 31 -a 0 -x {0.2 2.1 -1 ------- null}
r -t 0.0202977884873346 -s 1 -d 4 -p rtProtoDV -e 6 -c 0 -i 19 -a 0 -x {1.1 4.2 -1 ------- null}
r -t 0.0202977884873346 -s 5 -d 3 -p rtProtoDV -e 6 -c 0 -i 20 -a 0 -x {5.1 3.1 -1 ------- null}
+ -t 0.0202977884873346 -s 3 -d 2 -p rtProtoDV -e 6 -c 0 -i 32 -a 0 -x {3.1 2.1 -1 ------- null}
+ -t 0.0202977884873346 -s 3 -d 5 -p rtProtoDV -e 6 -c 0 -i 33 -a 0 -x {3.1 5.1 -1 ------- null}
r -t 0.0202977884873346 -s 5 -d 4 -p rtProtoDV -e 6 -c 0 -i 21 -a 0 -x {5.1 4.2 -1 ------- null}
+ -t 0.0202977884873346 -s 4 -d 1 -p rtProtoDV -e 6 -c 0 -i 34 -a 0 -x {4.2 1.1 -1 ------- null}
- -t 0.0202977884873346 -s 4 -d 1 -p rtProtoDV -e 6 -c 0 -i 34 -a 0 -x {4.2 1.1 -1 ------- null}
h -t 0.0202977884873346 -s 4 -d 1 -p rtProtoDV -e 6 -c 0 -i 34 -a 0 -x {4.2 1.1 -1 ------- null}
+ -t 0.0202977884873346 -s 4 -d 5 -p rtProtoDV -e 6 -c 0 -i 35 -a 0 -x {4.2 5.1 -1 ------- null}
- -t 0.0202977884873346 -s 4 -d 5 -p rtProtoDV -e 6 -c 0 -i 35 -a 0 -x {4.2 5.1 -1 ------- null}
h -t 0.0202977884873346 -s 4 -d 5 -p rtProtoDV -e 6 -c 0 -i 35 -a 0 -x {4.2 5.1 -1 ------- null}
- -t 0.0203297884873346 -s 3 -d 2 -p rtProtoDV -e 6 -c 0 -i 32 -a 0 -x {3.1 2.1 -1 ------- null}
h -t 0.0203297884873346 -s 3 -d 2 -p rtProtoDV -e 6 -c 0 -i 32 -a 0 -x {3.1 2.1 -1 ------- null}
- -t 0.0203297884873346 -s 3 -d 5 -p rtProtoDV -e 6 -c 0 -i 33 -a 0 -x {3.1 5.1 -1 ------- null}
h -t 0.0203297884873346 -s 3 -d 5 -p rtProtoDV -e 6 -c 0 -i 33 -a 0 -x {3.1 5.1 -1 ------- null}
r -t 0.0203297884873346 -s 2 -d 0 -p rtProtoDV -e 6 -c 0 -i 22 -a 0 -x {2.1 0.2 -1 ------- null}
r -t 0.0203297884873346 -s 2 -d 3 -p rtProtoDV -e 6 -c 0 -i 23 -a 0 -x {2.1 3.1 -1 ------- null}
r -t 0.0203297884873346 -s 1 -d 0 -p rtProtoDV -e 6 -c 0 -i 26 -a 0 -x {1.1 0.2 -1 ------- null}
r -t 0.0203297884873346 -s 1 -d 4 -p rtProtoDV -e 6 -c 0 -i 27 -a 0 -x {1.1 4.2 -1 ------- null}
r -t 0.0203297884873346 -s 5 -d 3 -p rtProtoDV -e 6 -c 0 -i 24 -a 0 -x {5.1 3.1 -1 ------- null}
r -t 0.0203297884873346 -s 5 -d 4 -p rtProtoDV -e 6 -c 0 -i 25 -a 0 -x {5.1 4.2 -1 ------- null}
r -t 0.0253297884873346 -s 3 -d 2 -p rtProtoDV -e 6 -c 0 -i 28 -a 0 -x {3.1 2.1 -1 ------- null}
r -t 0.0253297884873346 -s 3 -d 5 -p rtProtoDV -e 6 -c 0 -i 29 -a 0 -x {3.1 5.1 -1 ------- null}
r -t 0.0253297884873346 -s 0 -d 1 -p rtProtoDV -e 6 -c 0 -i 30 -a 0 -x {0.2 1.1 -1 ------- null}
r -t 0.0253297884873346 -s 0 -d 2 -p rtProtoDV -e 6 -c 0 -i 31 -a 0 -x {0.2 2.1 -1 ------- null}
r -t 0.0253297884873346 -s 4 -d 1 -p rtProtoDV -e 6 -c 0 -i 34 -a 0 -x {4.2 1.1 -1 ------- null}
r -t 0.0253297884873346 -s 4 -d 5 -p rtProtoDV -e 6 -c 0 -i 35 -a 0 -x {4.2 5.1 -1 ------- null}
r -t 0.0253617884873346 -s 3 -d 2 -p rtProtoDV -e 6 -c 0 -i 32 -a 0 -x {3.1 2.1 -1 ------- null}
r -t 0.0253617884873346 -s 3 -d 5 -p rtProtoDV -e 6 -c 0 -i 33 -a 0 -x {3.1 5.1 -1 ------- null}
+ -t 0.04406133552271 -s 3 -d 2 -p rtProtoDV -e 6 -c 0 -i 36 -a 0 -x {3.1 2.1 -1 ------- null}
- -t 0.04406133552271 -s 3 -d 2 -p rtProtoDV -e 6 -c 0 -i 36 -a 0 -x {3.1 2.1 -1 ------- null}
h -t 0.04406133552271 -s 3 -d 2 -p rtProtoDV -e 6 -c 0 -i 36 -a 0 -x {3.1 2.1 -1 ------- null}
+ -t 0.04406133552271 -s 3 -d 5 -p rtProtoDV -e 6 -c 0 -i 37 -a 0 -x {3.1 5.1 -1 ------- null}
- -t 0.04406133552271 -s 3 -d 5 -p rtProtoDV -e 6 -c 0 -i 37 -a 0 -x {3.1 5.1 -1 ------- null}
h -t 0.04406133552271 -s 3 -d 5 -p rtProtoDV -e 6 -c 0 -i 37 -a 0 -x {3.1 5.1 -1 ------- null}
r -t 0.04909333552271 -s 3 -d 2 -p rtProtoDV -e 6 -c 0 -i 36 -a 0 -x {3.1 2.1 -1 ------- null}
r -t 0.04909333552271 -s 3 -d 5 -p rtProtoDV -e 6 -c 0 -i 37 -a 0 -x {3.1 5.1 -1 ------- null}
+ -t 0.2 -s 0 -d 1 -p tcp -e 40 -c 0 -i 38 -a 0 -x {0.0 4.0 0 ------- null}
- -t 0.2 -s 0 -d 1 -p tcp -e 40 -c 0 -i 38 -a 0 -x {0.0 4.0 0 ------- null}
h -t 0.2 -s 0 -d 1 -p tcp -e 40 -c 0 -i 38 -a 0 -x {0.0 4.0 -1 ------- null}
r -t 0.205213333333333 -s 0 -d 1 -p tcp -e 40 -c 0 -i 38 -a 0 -x {0.0 4.0 0 ------- null}
+ -t 0.205213333333333 -s 1 -d 4 -p tcp -e 40 -c 0 -i 38 -a 0 -x {0.0 4.0 0 ------- null}
- -t 0.205213333333333 -s 1 -d 4 -p tcp -e 40 -c 0 -i 38 -a 0 -x {0.0 4.0 0 ------- null}
h -t 0.205213333333333 -s 1 -d 4 -p tcp -e 40 -c 0 -i 38 -a 0 -x {0.0 4.0 -1 ------- null}
r -t 0.210426666666667 -s 1 -d 4 -p tcp -e 40 -c 0 -i 38 -a 0 -x {0.0 4.0 0 ------- null}
+ -t 0.210426666666667 -s 4 -d 1 -p ack -e 40 -c 0 -i 39 -a 0 -x {4.0 0.0 0 ------- null}
- -t 0.210426666666667 -s 4 -d 1 -p ack -e 40 -c 0 -i 39 -a 0 -x {4.0 0.0 0 ------- null}
h -t 0.210426666666667 -s 4 -d 1 -p ack -e 40 -c 0 -i 39 -a 0 -x {4.0 0.0 -1 ------- null}
r -t 0.21564 -s 4 -d 1 -p ack -e 40 -c 0 -i 39 -a 0 -x {4.0 0.0 0 ------- null}
+ -t 0.21564 -s 1 -d 0 -p ack -e 40 -c 0 -i 39 -a 0 -x {4.0 0.0 0 ------- null}
- -t 0.21564 -s 1 -d 0 -p ack -e 40 -c 0 -i 39 -a 0 -x {4.0 0.0 0 ------- null}
h -t 0.21564 -s 1 -d 0 -p ack -e 40 -c 0 -i 39 -a 0 -x {4.0 0.0 -1 ------- null}
+ -t 0.22058669092161 -s 4 -d 1 -p rtProtoDV -e 6 -c 0 -i 40 -a 0 -x {4.2 1.1 -1 ------- null}
- -t 0.22058669092161 -s 4 -d 1 -p rtProtoDV -e 6 -c 0 -i 40 -a 0 -x {4.2 1.1 -1 ------- null}
h -t 0.22058669092161 -s 4 -d 1 -p rtProtoDV -e 6 -c 0 -i 40 -a 0 -x {4.2 1.1 -1 ------- null}
+ -t 0.22058669092161 -s 4 -d 5 -p rtProtoDV -e 6 -c 0 -i 41 -a 0 -x {4.2 5.1 -1 ------- null}
- -t 0.22058669092161 -s 4 -d 5 -p rtProtoDV -e 6 -c 0 -i 41 -a 0 -x {4.2 5.1 -1 ------- null}
h -t 0.22058669092161 -s 4 -d 5 -p rtProtoDV -e 6 -c 0 -i 41 -a 0 -x {4.2 5.1 -1 ------- null}
r -t 0.220853333333333 -s 1 -d 0 -p ack -e 40 -c 0 -i 39 -a 0 -x {4.0 0.0 0 ------- null}
+ -t 0.220853333333333 -s 0 -d 1 -p tcp -e 1040 -c 0 -i 42 -a 0 -x {0.0 4.0 1 ------- null}
- -t 0.220853333333333 -s 0 -d 1 -p tcp -e 1040 -c 0 -i 42 -a 0 -x {0.0 4.0 1 ------- null}
h -t 0.220853333333333 -s 0 -d 1 -p tcp -e 1040 -c 0 -i 42 -a 0 -x {0.0 4.0 -1 ------- null}
+ -t 0.220853333333333 -s 0 -d 1 -p tcp -e 1040 -c 0 -i 43 -a 0 -x {0.0 4.0 2 ------- null}
r -t 0.22561869092161 -s 4 -d 1 -p rtProtoDV -e 6 -c 0 -i 40 -a 0 -x {4.2 1.1 -1 ------- null}
r -t 0.22561869092161 -s 4 -d 5 -p rtProtoDV -e 6 -c 0 -i 41 -a 0 -x {4.2 5.1 -1 ------- null}
- -t 0.2264 -s 0 -d 1 -p tcp -e 1040 -c 0 -i 43 -a 0 -x {0.0 4.0 2 ------- null}
h -t 0.2264 -s 0 -d 1 -p tcp -e 1040 -c 0 -i 43 -a 0 -x {0.0 4.0 -1 ------- null}
r -t 0.2314 -s 0 -d 1 -p tcp -e 1040 -c 0 -i 42 -a 0 -x {0.0 4.0 1 ------- null}
+ -t 0.2314 -s 1 -d 4 -p tcp -e 1040 -c 0 -i 42 -a 0 -x {0.0 4.0 1 ------- null}
- -t 0.2314 -s 1 -d 4 -p tcp -e 1040 -c 0 -i 42 -a 0 -x {0.0 4.0 1 ------- null}
h -t 0.2314 -s 1 -d 4 -p tcp -e 1040 -c 0 -i 42 -a 0 -x {0.0 4.0 -1 ------- null}
r -t 0.236946666666667 -s 0 -d 1 -p tcp -e 1040 -c 0 -i 43 -a 0 -x {0.0 4.0 2 ------- null}
+ -t 0.236946666666667 -s 1 -d 4 -p tcp -e 1040 -c 0 -i 43 -a 0 -x {0.0 4.0 2 ------- null}
- -t 0.236946666666667 -s 1 -d 4 -p tcp -e 1040 -c 0 -i 43 -a 0 -x {0.0 4.0 2 ------- null}
h -t 0.236946666666667 -s 1 -d 4 -p tcp -e 1040 -c 0 -i 43 -a 0 -x {0.0 4.0 -1 ------- null}
r -t 0.241946666666667 -s 1 -d 4 -p tcp -e 1040 -c 0 -i 42 -a 0 -x {0.0 4.0 1 ------- null}
+ -t 0.241946666666667 -s 4 -d 1 -p ack -e 40 -c 0 -i 44 -a 0 -x {4.0 0.0 1 ------- null}
- -t 0.241946666666667 -s 4 -d 1 -p ack -e 40 -c 0 -i 44 -a 0 -x {4.0 0.0 1 ------- null}
h -t 0.241946666666667 -s 4 -d 1 -p ack -e 40 -c 0 -i 44 -a 0 -x {4.0 0.0 -1 ------- null}
r -t 0.24716 -s 4 -d 1 -p ack -e 40 -c 0 -i 44 -a 0 -x {4.0 0.0 1 ------- null}
+ -t 0.24716 -s 1 -d 0 -p ack -e 40 -c 0 -i 44 -a 0 -x {4.0 0.0 1 ------- null}
- -t 0.24716 -s 1 -d 0 -p ack -e 40 -c 0 -i 44 -a 0 -x {4.0 0.0 1 ------- null}
h -t 0.24716 -s 1 -d 0 -p ack -e 40 -c 0 -i 44 -a 0 -x {4.0 0.0 -1 ------- null}
r -t 0.247493333333333 -s 1 -d 4 -p tcp -e 1040 -c 0 -i 43 -a 0 -x {0.0 4.0 2 ------- null}
+ -t 0.247493333333333 -s 4 -d 1 -p ack -e 40 -c 0 -i 45 -a 0 -x {4.0 0.0 2 ------- null}
- -t 0.247493333333333 -s 4 -d 1 -p ack -e 40 -c 0 -i 45 -a 0 -x {4.0 0.0 2 ------- null}
h -t 0.247493333333333 -s 4 -d 1 -p ack -e 40 -c 0 -i 45 -a 0 -x {4.0 0.0 -1 ------- null}
r -t 0.252373333333333 -s 1 -d 0 -p ack -e 40 -c 0 -i 44 -a 0 -x {4.0 0.0 1 ------- null}
+ -t 0.252373333333333 -s 0 -d 1 -p tcp -e 1040 -c 0 -i 46 -a 0 -x {0.0 4.0 3 ------- null}
- -t 0.252373333333333 -s 0 -d 1 -p tcp -e 1040 -c 0 -i 46 -a 0 -x {0.0 4.0 3 ------- null}
h -t 0.252373333333333 -s 0 -d 1 -p tcp -e 1040 -c 0 -i 46 -a 0 -x {0.0 4.0 -1 ------- null}
+ -t 0.252373333333333 -s 0 -d 1 -p tcp -e 1040 -c 0 -i 47 -a 0 -x {0.0 4.0 4 ------- null}
r -t 0.252706666666667 -s 4 -d 1 -p ack -e 40 -c 0 -i 45 -a 0 -x {4.0 0.0 2 ------- null}
+ -t 0.252706666666667 -s 1 -d 0 -p ack -e 40 -c 0 -i 45 -a 0 -x {4.0 0.0 2 ------- null}
- -t 0.252706666666667 -s 1 -d 0 -p ack -e 40 -c 0 -i 45 -a 0 -x {4.0 0.0 2 ------- null}
h -t 0.252706666666667 -s 1 -d 0 -p ack -e 40 -c 0 -i 45 -a 0 -x {4.0 0.0 -1 ------- null}
- -t 0.25792 -s 0 -d 1 -p tcp -e 1040 -c 0 -i 47 -a 0 -x {0.0 4.0 4 ------- null}
h -t 0.25792 -s 0 -d 1 -p tcp -e 1040 -c 0 -i 47 -a 0 -x {0.0 4.0 -1 ------- null}
r -t 0.25792 -s 1 -d 0 -p ack -e 40 -c 0 -i 45 -a 0 -x {4.0 0.0 2 ------- null}
+ -t 0.25792 -s 0 -d 1 -p tcp -e 1040 -c 0 -i 48 -a 0 -x {0.0 4.0 5 ------- null}
+ -t 0.25792 -s 0 -d 1 -p tcp -e 1040 -c 0 -i 49 -a 0 -x {0.0 4.0 6 ------- null}
r -t 0.26292 -s 0 -d 1 -p tcp -e 1040 -c 0 -i 46 -a 0 -x {0.0 4.0 3 ------- null}
+ -t 0.26292 -s 1 -d 4 -p tcp -e 1040 -c 0 -i 46 -a 0 -x {0.0 4.0 3 ------- null}
- -t 0.26292 -s 1 -d 4 -p tcp -e 1040 -c 0 -i 46 -a 0 -x {0.0 4.0 3 ------- null}
h -t 0.26292 -s 1 -d 4 -p tcp -e 1040 -c 0 -i 46 -a 0 -x {0.0 4.0 -1 ------- null}
- -t 0.263466666666667 -s 0 -d 1 -p tcp -e 1040 -c 0 -i 48 -a 0 -x {0.0 4.0 5 ------- null}
h -t 0.263466666666667 -s 0 -d 1 -p tcp -e 1040 -c 0 -i 48 -a 0 -x {0.0 4.0 -1 ------- null}
r -t 0.268466666666667 -s 0 -d 1 -p tcp -e 1040 -c 0 -i 47 -a 0 -x {0.0 4.0 4 ------- null}
+ -t 0.268466666666667 -s 1 -d 4 -p tcp -e 1040 -c 0 -i 47 -a 0 -x {0.0 4.0 4 ------- null}
- -t 0.268466666666667 -s 1 -d 4 -p tcp -e 1040 -c 0 -i 47 -a 0 -x {0.0 4.0 4 ------- null}
h -t 0.268466666666667 -s 1 -d 4 -p tcp -e 1040 -c 0 -i 47 -a 0 -x {0.0 4.0 -1 ------- null}
- -t 0.269013333333333 -s 0 -d 1 -p tcp -e 1040 -c 0 -i 49 -a 0 -x {0.0 4.0 6 ------- null}
h -t 0.269013333333333 -s 0 -d 1 -p tcp -e 1040 -c 0 -i 49 -a 0 -x {0.0 4.0 -1 ------- null}
r -t 0.273466666666667 -s 1 -d 4 -p tcp -e 1040 -c 0 -i 46 -a 0 -x {0.0 4.0 3 ------- null}
+ -t 0.273466666666667 -s 4 -d 1 -p ack -e 40 -c 0 -i 50 -a 0 -x {4.0 0.0 3 ------- null}
- -t 0.273466666666667 -s 4 -d 1 -p ack -e 40 -c 0 -i 50 -a 0 -x {4.0 0.0 3 ------- null}
h -t 0.273466666666667 -s 4 -d 1 -p ack -e 40 -c 0 -i 50 -a 0 -x {4.0 0.0 -1 ------- null}
r -t 0.274013333333333 -s 0 -d 1 -p tcp -e 1040 -c 0 -i 48 -a 0 -x {0.0 4.0 5 ------- null}
+ -t 0.274013333333333 -s 1 -d 4 -p tcp -e 1040 -c 0 -i 48 -a 0 -x {0.0 4.0 5 ------- null}
- -t 0.274013333333333 -s 1 -d 4 -p tcp -e 1040 -c 0 -i 48 -a 0 -x {0.0 4.0 5 ------- null}
h -t 0.274013333333333 -s 1 -d 4 -p tcp -e 1040 -c 0 -i 48 -a 0 -x {0.0 4.0 -1 ------- null}
+ -t 0.277940357931862 -s 1 -d 0 -p rtProtoDV -e 6 -c 0 -i 51 -a 0 -x {1.1 0.2 -1 ------- null}
- -t 0.277940357931862 -s 1 -d 0 -p rtProtoDV -e 6 -c 0 -i 51 -a 0 -x {1.1 0.2 -1 ------- null}
h -t 0.277940357931862 -s 1 -d 0 -p rtProtoDV -e 6 -c 0 -i 51 -a 0 -x {1.1 0.2 -1 ------- null}
+ -t 0.277940357931862 -s 1 -d 4 -p rtProtoDV -e 6 -c 0 -i 52 -a 0 -x {1.1 4.2 -1 ------- null}
r -t 0.27868 -s 4 -d 1 -p ack -e 40 -c 0 -i 50 -a 0 -x {4.0 0.0 3 ------- null}
+ -t 0.27868 -s 1 -d 0 -p ack -e 40 -c 0 -i 50 -a 0 -x {4.0 0.0 3 ------- null}
- -t 0.27868 -s 1 -d 0 -p ack -e 40 -c 0 -i 50 -a 0 -x {4.0 0.0 3 ------- null}
h -t 0.27868 -s 1 -d 0 -p ack -e 40 -c 0 -i 50 -a 0 -x {4.0 0.0 -1 ------- null}
r -t 0.279013333333333 -s 1 -d 4 -p tcp -e 1040 -c 0 -i 47 -a 0 -x {0.0 4.0 4 ------- null}
+ -t 0.279013333333333 -s 4 -d 1 -p ack -e 40 -c 0 -i 53 -a 0 -x {4.0 0.0 4 ------- null}
- -t 0.279013333333333 -s 4 -d 1 -p ack -e 40 -c 0 -i 53 -a 0 -x {4.0 0.0 4 ------- null}
h -t 0.279013333333333 -s 4 -d 1 -p ack -e 40 -c 0 -i 53 -a 0 -x {4.0 0.0 -1 ------- null}
r -t 0.27956 -s 0 -d 1 -p tcp -e 1040 -c 0 -i 49 -a 0 -x {0.0 4.0 6 ------- null}
+ -t 0.27956 -s 1 -d 4 -p tcp -e 1040 -c 0 -i 49 -a 0 -x {0.0 4.0 6 ------- null}
- -t 0.27956 -s 1 -d 4 -p rtProtoDV -e 6 -c 0 -i 52 -a 0 -x {1.1 4.2 -1 ------- null}
h -t 0.27956 -s 1 -d 4 -p rtProtoDV -e 6 -c 0 -i 52 -a 0 -x {1.1 4.2 -1 ------- null}
- -t 0.279592 -s 1 -d 4 -p tcp -e 1040 -c 0 -i 49 -a 0 -x {0.0 4.0 6 ------- null}
h -t 0.279592 -s 1 -d 4 -p tcp -e 1040 -c 0 -i 49 -a 0 -x {0.0 4.0 -1 ------- null}
r -t 0.282972357931862 -s 1 -d 0 -p rtProtoDV -e 6 -c 0 -i 51 -a 0 -x {1.1 0.2 -1 ------- null}
r -t 0.283893333333333 -s 1 -d 0 -p ack -e 40 -c 0 -i 50 -a 0 -x {4.0 0.0 3 ------- null}
+ -t 0.283893333333333 -s 0 -d 1 -p tcp -e 1040 -c 0 -i 54 -a 0 -x {0.0 4.0 7 ------- null}
- -t 0.283893333333333 -s 0 -d 1 -p tcp -e 1040 -c 0 -i 54 -a 0 -x {0.0 4.0 7 ------- null}
h -t 0.283893333333333 -s 0 -d 1 -p tcp -e 1040 -c 0 -i 54 -a 0 -x {0.0 4.0 -1 ------- null}
+ -t 0.283893333333333 -s 0 -d 1 -p tcp -e 1040 -c 0 -i 55 -a 0 -x {0.0 4.0 8 ------- null}
r -t 0.284226666666667 -s 4 -d 1 -p ack -e 40 -c 0 -i 53 -a 0 -x {4.0 0.0 4 ------- null}
+ -t 0.284226666666667 -s 1 -d 0 -p ack -e 40 -c 0 -i 53 -a 0 -x {4.0 0.0 4 ------- null}
- -t 0.284226666666667 -s 1 -d 0 -p ack -e 40 -c 0 -i 53 -a 0 -x {4.0 0.0 4 ------- null}
h -t 0.284226666666667 -s 1 -d 0 -p ack -e 40 -c 0 -i 53 -a 0 -x {4.0 0.0 -1 ------- null}
r -t 0.28456 -s 1 -d 4 -p tcp -e 1040 -c 0 -i 48 -a 0 -x {0.0 4.0 5 ------- null}
+ -t 0.28456 -s 4 -d 1 -p ack -e 40 -c 0 -i 56 -a 0 -x {4.0 0.0 5 ------- null}
- -t 0.28456 -s 4 -d 1 -p ack -e 40 -c 0 -i 56 -a 0 -x {4.0 0.0 5 ------- null}
h -t 0.28456 -s 4 -d 1 -p ack -e 40 -c 0 -i 56 -a 0 -x {4.0 0.0 -1 ------- null}
r -t 0.284592 -s 1 -d 4 -p rtProtoDV -e 6 -c 0 -i 52 -a 0 -x {1.1 4.2 -1 ------- null}
- -t 0.28944 -s 0 -d 1 -p tcp -e 1040 -c 0 -i 55 -a 0 -x {0.0 4.0 8 ------- null}
h -t 0.28944 -s 0 -d 1 -p tcp -e 1040 -c 0 -i 55 -a 0 -x {0.0 4.0 -1 ------- null}
r -t 0.28944 -s 1 -d 0 -p ack -e 40 -c 0 -i 53 -a 0 -x {4.0 0.0 4 ------- null}
+ -t 0.28944 -s 0 -d 1 -p tcp -e 1040 -c 0 -i 57 -a 0 -x {0.0 4.0 9 ------- null}
+ -t 0.28944 -s 0 -d 1 -p tcp -e 1040 -c 0 -i 58 -a 0 -x {0.0 4.0 10 ------- null}
r -t 0.289773333333333 -s 4 -d 1 -p ack -e 40 -c 0 -i 56 -a 0 -x {4.0 0.0 5 ------- null}
+ -t 0.289773333333333 -s 1 -d 0 -p ack -e 40 -c 0 -i 56 -a 0 -x {4.0 0.0 5 ------- null}
- -t 0.289773333333333 -s 1 -d 0 -p ack -e 40 -c 0 -i 56 -a 0 -x {4.0 0.0 5 ------- null}
h -t 0.289773333333333 -s 1 -d 0 -p ack -e 40 -c 0 -i 56 -a 0 -x {4.0 0.0 -1 ------- null}
r -t 0.290138666666667 -s 1 -d 4 -p tcp -e 1040 -c 0 -i 49 -a 0 -x {0.0 4.0 6 ------- null}
+ -t 0.290138666666667 -s 4 -d 1 -p ack -e 40 -c 0 -i 59 -a 0 -x {4.0 0.0 6 ------- null}
- -t 0.290138666666667 -s 4 -d 1 -p ack -e 40 -c 0 -i 59 -a 0 -x {4.0 0.0 6 ------- null}
h -t 0.290138666666667 -s 4 -d 1 -p ack -e 40 -c 0 -i 59 -a 0 -x {4.0 0.0 -1 ------- null}
r -t 0.29444 -s 0 -d 1 -p tcp -e 1040 -c 0 -i 54 -a 0 -x {0.0 4.0 7 ------- null}
+ -t 0.29444 -s 1 -d 4 -p tcp -e 1040 -c 0 -i 54 -a 0 -x {0.0 4.0 7 ------- null}
- -t 0.29444 -s 1 -d 4 -p tcp -e 1040 -c 0 -i 54 -a 0 -x {0.0 4.0 7 ------- null}
h -t 0.29444 -s 1 -d 4 -p tcp -e 1040 -c 0 -i 54 -a 0 -x {0.0 4.0 -1 ------- null}
- -t 0.294986666666667 -s 0 -d 1 -p tcp -e 1040 -c 0 -i 57 -a 0 -x {0.0 4.0 9 ------- null}
h -t 0.294986666666667 -s 0 -d 1 -p tcp -e 1040 -c 0 -i 57 -a 0 -x {0.0 4.0 -1 ------- null}
r -t 0.294986666666667 -s 1 -d 0 -p ack -e 40 -c 0 -i 56 -a 0 -x {4.0 0.0 5 ------- null}
+ -t 0.294986666666667 -s 0 -d 1 -p tcp -e 1040 -c 0 -i 60 -a 0 -x {0.0 4.0 11 ------- null}
+ -t 0.294986666666667 -s 0 -d 1 -p tcp -e 1040 -c 0 -i 61 -a 0 -x {0.0 4.0 12 ------- null}
r -t 0.295352 -s 4 -d 1 -p ack -e 40 -c 0 -i 59 -a 0 -x {4.0 0.0 6 ------- null}
+ -t 0.295352 -s 1 -d 0 -p ack -e 40 -c 0 -i 59 -a 0 -x {4.0 0.0 6 ------- null}
- -t 0.295352 -s 1 -d 0 -p ack -e 40 -c 0 -i 59 -a 0 -x {4.0 0.0 6 ------- null}
h -t 0.295352 -s 1 -d 0 -p ack -e 40 -c 0 -i 59 -a 0 -x {4.0 0.0 -1 ------- null}
r -t 0.299986666666667 -s 0 -d 1 -p tcp -e 1040 -c 0 -i 55 -a 0 -x {0.0 4.0 8 ------- null}
+ -t 0.299986666666667 -s 1 -d 4 -p tcp -e 1040 -c 0 -i 55 -a 0 -x {0.0 4.0 8 ------- null}
- -t 0.299986666666667 -s 1 -d 4 -p tcp -e 1040 -c 0 -i 55 -a 0 -x {0.0 4.0 8 ------- null}
h -t 0.299986666666667 -s 1 -d 4 -p tcp -e 1040 -c 0 -i 55 -a 0 -x {0.0 4.0 -1 ------- null}
- -t 0.300533333333333 -s 0 -d 1 -p tcp -e 1040 -c 0 -i 58 -a 0 -x {0.0 4.0 10 ------- null}
h -t 0.300533333333333 -s 0 -d 1 -p tcp -e 1040 -c 0 -i 58 -a 0 -x {0.0 4.0 -1 ------- null}
r -t 0.300565333333333 -s 1 -d 0 -p ack -e 40 -c 0 -i 59 -a 0 -x {4.0 0.0 6 ------- null}
+ -t 0.300565333333333 -s 0 -d 1 -p tcp -e 1040 -c 0 -i 62 -a 0 -x {0.0 4.0 13 ------- null}
+ -t 0.300565333333333 -s 0 -d 1 -p tcp -e 1040 -c 0 -i 63 -a 0 -x {0.0 4.0 14 ------- null}
r -t 0.304986666666667 -s 1 -d 4 -p tcp -e 1040 -c 0 -i 54 -a 0 -x {0.0 4.0 7 ------- null}
+ -t 0.304986666666667 -s 4 -d 1 -p ack -e 40 -c 0 -i 64 -a 0 -x {4.0 0.0 7 ------- null}
- -t 0.304986666666667 -s 4 -d 1 -p ack -e 40 -c 0 -i 64 -a 0 -x {4.0 0.0 7 ------- null}
h -t 0.304986666666667 -s 4 -d 1 -p ack -e 40 -c 0 -i 64 -a 0 -x {4.0 0.0 -1 ------- null}
r -t 0.305533333333333 -s 0 -d 1 -p tcp -e 1040 -c 0 -i 57 -a 0 -x {0.0 4.0 9 ------- null}
+ -t 0.305533333333333 -s 1 -d 4 -p tcp -e 1040 -c 0 -i 57 -a 0 -x {0.0 4.0 9 ------- null}
- -t 0.305533333333333 -s 1 -d 4 -p tcp -e 1040 -c 0 -i 57 -a 0 -x {0.0 4.0 9 ------- null}
h -t 0.305533333333333 -s 1 -d 4 -p tcp -e 1040 -c 0 -i 57 -a 0 -x {0.0 4.0 -1 ------- null}
- -t 0.30608 -s 0 -d 1 -p tcp -e 1040 -c 0 -i 60 -a 0 -x {0.0 4.0 11 ------- null}
h -t 0.30608 -s 0 -d 1 -p tcp -e 1040 -c 0 -i 60 -a 0 -x {0.0 4.0 -1 ------- null}
r -t 0.3102 -s 4 -d 1 -p ack -e 40 -c 0 -i 64 -a 0 -x {4.0 0.0 7 ------- null}