n -t * -s 0  -x 5 -y 5 -Z 0 -z 40  -v circle -c black
n -t * -s 1  -x 490 -y 285 -Z 0 -z 40  -v circle -c black
n -t * -s 2  -x 150 -y 240 -Z 0 -z 40  -v circle -c black
V -t * -v 1.0a5 -a 0
W -t * -x 500 -y 400
A -t * -n 1 -p 0 -o 0x7fffffff -c 30 -a 1
A -t * -h 1 -m 1073741823 -s 0
n -t 0.000000 -s 0 -x 5.000000 -y 5.000000 -U 25.391748 -V 15.976830 -T 17.525378
n -t 0.000000 -s 1 -x 490.000000 -y 285.000000 -U -30.000000 -V 0.000000 -T 9.666667
n -t 0.000000 -s 2 -x 150.000000 -y 240.000000 -U -28.718825 -V 8.673471 -T 5.188235
+ -t 1.000000000 -s 0 -d -1 -p tcp -e 40 -c 2 -a 0 -i 0 -k AGT 
- -t 1.000000000 -s 0 -d -1 -p tcp -e 40 -c 2 -a 0 -i 0 -k AGT
h -t 1.000000000 -s 0 -d -1 -p tcp -e 40 -c 2 -a 0 -i 0 -k AGT
+ -t 1.000000000 -s 0 -d -1 -p AODV -e 48 -c 2 -a 0 -i 0 -k RTR 
- -t 1.000000000 -s 0 -d -1 -p AODV -e 48 -c 2 -a 0 -i 0 -k RTR
h -t 1.000000000 -s 0 -d -1 -p AODV -e 48 -c 2 -a 0 -i 0 -k RTR
+ -t 1.000115000 -s 0 -d -1 -p AODV -e 106 -c 2 -a 0 -i 0 -k MAC 
- -t 1.000115000 -s 0 -d -1 -p AODV -e 106 -c 2 -a 0 -i 0 -k MAC
h -t 1.000115000 -s 0 -d -1 -p AODV -e 106 -c 2 -a 0 -i 0 -k MAC
r -t 1.000963817 -s 2 -d -1 -p AODV -e 48 -c 2 -a 0 -i 0 -k MAC
r -t 1.000988817 -s 2 -d -1 -p AODV -e 48 -c 2 -a 0 -i 0 -k RTR
+ -t 1.000988817 -s 2 -d 0 -p AODV -e 44 -c 2 -a 0 -i 0 -k RTR 
- -t 1.000988817 -s 2 -d 0 -p AODV -e 44 -c 2 -a 0 -i 0 -k RTR
h -t 1.000988817 -s 2 -d 0 -p AODV -e 44 -c 2 -a 0 -i 0 -k RTR
+ -t 1.001343817 -s 2 -d -1 -p ARP -e 86 -c 2 -a 0 -i 0 -k MAC 
- -t 1.001343817 -s 2 -d -1 -p ARP -e 86 -c 2 -a 0 -i 0 -k MAC
h -t 1.001343817 -s 2 -d -1 -p ARP -e 86 -c 2 -a 0 -i 0 -k MAC
r -t 1.002032634 -s 0 -d -1 -p ARP -e 28 -c 2 -a 0 -i 0 -k MAC
+ -t 1.002322634 -s 0 -d -1 -p RTS -e 44 -c 2 -a 0 -i 0 -k MAC 
- -t 1.002322634 -s 0 -d -1 -p RTS -e 44 -c 2 -a 0 -i 0 -k MAC
h -t 1.002322634 -s 0 -d -1 -p RTS -e 44 -c 2 -a 0 -i 0 -k MAC
r -t 1.002675451 -s 2 -d -1 -p RTS -e 44 -c 2 -a 0 -i 0 -k MAC
+ -t 1.002685451 -s 2 -d -1 -p CTS -e 38 -c 2 -a 0 -i 0 -k MAC 
- -t 1.002685451 -s 2 -d -1 -p CTS -e 38 -c 2 -a 0 -i 0 -k MAC
h -t 1.002685451 -s 2 -d -1 -p CTS -e 38 -c 2 -a 0 -i 0 -k MAC
r -t 1.002990268 -s 0 -d -1 -p CTS -e 38 -c 2 -a 0 -i 0 -k MAC
+ -t 1.003000268 -s 0 -d -1 -p ARP -e 86 -c 2 -a 0 -i 0 -k MAC 
- -t 1.003000268 -s 0 -d -1 -p ARP -e 86 -c 2 -a 0 -i 0 -k MAC
h -t 1.003000268 -s 0 -d -1 -p ARP -e 86 -c 2 -a 0 -i 0 -k MAC
r -t 1.003689085 -s 2 -d -1 -p ARP -e 28 -c 2 -a 0 -i 0 -k MAC
+ -t 1.003699085 -s 2 -d -1 -p ACK -e 38 -c 2 -a 0 -i 0 -k MAC 
- -t 1.003699085 -s 2 -d -1 -p ACK -e 38 -c 2 -a 0 -i 0 -k MAC
h -t 1.003699085 -s 2 -d -1 -p ACK -e 38 -c 2 -a 0 -i 0 -k MAC
r -t 1.004003902 -s 0 -d -1 -p ACK -e 38 -c 2 -a 0 -i 0 -k MAC
+ -t 1.004133085 -s 2 -d -1 -p RTS -e 44 -c 2 -a 0 -i 0 -k MAC 
- -t 1.004133085 -s 2 -d -1 -p RTS -e 44 -c 2 -a 0 -i 0 -k MAC
h -t 1.004133085 -s 2 -d -1 -p RTS -e 44 -c 2 -a 0 -i 0 -k MAC
r -t 1.004485902 -s 0 -d -1 -p RTS -e 44 -c 2 -a 0 -i 0 -k MAC
+ -t 1.004495902 -s 0 -d -1 -p CTS -e 38 -c 2 -a 0 -i 0 -k MAC 
- -t 1.004495902 -s 0 -d -1 -p CTS -e 38 -c 2 -a 0 -i 0 -k MAC
h -t 1.004495902 -s 0 -d -1 -p CTS -e 38 -c 2 -a 0 -i 0 -k MAC
r -t 1.004800719 -s 2 -d -1 -p CTS -e 38 -c 2 -a 0 -i 0 -k MAC
+ -t 1.004810719 -s 2 -d 0 -p AODV -e 102 -c 2 -a 0 -i 0 -k MAC 
- -t 1.004810719 -s 2 -d 0 -p AODV -e 102 -c 2 -a 0 -i 0 -k MAC
h -t 1.004810719 -s 2 -d 0 -p AODV -e 102 -c 2 -a 0 -i 0 -k MAC
r -t 1.005627536 -s 0 -d 0 -p AODV -e 44 -c 2 -a 0 -i 0 -k MAC
+ -t 1.005637536 -s 0 -d -1 -p ACK -e 38 -c 2 -a 0 -i 0 -k MAC 
- -t 1.005637536 -s 0 -d -1 -p ACK -e 38 -c 2 -a 0 -i 0 -k MAC
h -t 1.005637536 -s 0 -d -1 -p ACK -e 38 -c 2 -a 0 -i 0 -k MAC
+ -t 1.005652536 -s 0 -d 2 -p tcp -e 40 -c 2 -a 0 -i 0 -k RTR 
- -t 1.005652536 -s 0 -d 2 -p tcp -e 40 -c 2 -a 0 -i 0 -k RTR
h -t 1.005652536 -s 0 -d 2 -p tcp -e 40 -c 2 -a 0 -i 0 -k RTR
r -t 1.005942352 -s 2 -d -1 -p ACK -e 38 -c 2 -a 0 -i 0 -k MAC
+ -t 1.006151536 -s 0 -d -1 -p RTS -e 44 -c 2 -a 0 -i 0 -k MAC 
- -t 1.006151536 -s 0 -d -1 -p RTS -e 44 -c 2 -a 0 -i 0 -k MAC
h -t 1.006151536 -s 0 -d -1 -p RTS -e 44 -c 2 -a 0 -i 0 -k MAC
r -t 1.006504352 -s 2 -d -1 -p RTS -e 44 -c 2 -a 0 -i 0 -k MAC
+ -t 1.006514352 -s 2 -d -1 -p CTS -e 38 -c 2 -a 0 -i 0 -k MAC 
- -t 1.006514352 -s 2 -d -1 -p CTS -e 38 -c 2 -a 0 -i 0 -k MAC
h -t 1.006514352 -s 2 -d -1 -p CTS -e 38 -c 2 -a 0 -i 0 -k MAC
r -t 1.006819169 -s 0 -d -1 -p CTS -e 38 -c 2 -a 0 -i 0 -k MAC
+ -t 1.006829169 -s 0 -d 2 -p tcp -e 98 -c 2 -a 0 -i 0 -k MAC 
- -t 1.006829169 -s 0 -d 2 -p tcp -e 98 -c 2 -a 0 -i 0 -k MAC
h -t 1.006829169 -s 0 -d 2 -p tcp -e 98 -c 2 -a 0 -i 0 -k MAC
r -t 1.007613986 -s 2 -d 2 -p tcp -e 40 -c 2 -a 0 -i 0 -k MAC
+ -t 1.007623986 -s 2 -d -1 -p ACK -e 38 -c 2 -a 0 -i 0 -k MAC 
- -t 1.007623986 -s 2 -d -1 -p ACK -e 38 -c 2 -a 0 -i 0 -k MAC
h -t 1.007623986 -s 2 -d -1 -p ACK -e 38 -c 2 -a 0 -i 0 -k MAC
r -t 1.007638986 -s 2 -d 2 -p tcp -e 40 -c 2 -a 0 -i 0 -k AGT
+ -t 1.007638986 -s 2 -d -1 -p ack -e 40 -c 2 -a 0 -i 1 -k AGT 
- -t 1.007638986 -s 2 -d -1 -p ack -e 40 -c 2 -a 0 -i 1 -k AGT
h -t 1.007638986 -s 2 -d -1 -p ack -e 40 -c 2 -a 0 -i 1 -k AGT
+ -t 1.007638986 -s 2 -d 0 -p ack -e 40 -c 2 -a 0 -i 1 -k RTR 
- -t 1.007638986 -s 2 -d 0 -p ack -e 40 -c 2 -a 0 -i 1 -k RTR
h -t 1.007638986 -s 2 -d 0 -p ack -e 40 -c 2 -a 0 -i 1 -k RTR
r -t 1.007928802 -s 0 -d -1 -p ACK -e 38 -c 2 -a 0 -i 0 -k MAC
+ -t 1.008037986 -s 2 -d -1 -p RTS -e 44 -c 2 -a 0 -i 0 -k MAC 
- -t 1.008037986 -s 2 -d -1 -p RTS -e 44 -c 2 -a 0 -i 0 -k MAC
h -t 1.008037986 -s 2 -d -1 -p RTS -e 44 -c 2 -a 0 -i 0 -k MAC
r -t 1.008390802 -s 0 -d -1 -p RTS -e 44 -c 2 -a 0 -i 0 -k MAC
+ -t 1.008400802 -s 0 -d -1 -p CTS -e 38 -c 2 -a 0 -i 0 -k MAC 
- -t 1.008400802 -s 0 -d -1 -p CTS -e 38 -c 2 -a 0 -i 0 -k MAC
h -t 1.008400802 -s 0 -d -1 -p CTS -e 38 -c 2 -a 0 -i 0 -k MAC
r -t 1.008705619 -s 2 -d -1 -p CTS -e 38 -c 2 -a 0 -i 0 -k MAC
+ -t 1.008715619 -s 2 -d 0 -p ack -e 98 -c 2 -a 0 -i 1 -k MAC 
- -t 1.008715619 -s 2 -d 0 -p ack -e 98 -c 2 -a 0 -i 1 -k MAC
h -t 1.008715619 -s 2 -d 0 -p ack -e 98 -c 2 -a 0 -i 1 -k MAC
r -t 1.009500435 -s 0 -d 0 -p ack -e 40 -c 2 -a 0 -i 1 -k MAC
+ -t 1.009510435 -s 0 -d -1 -p ACK -e 38 -c 2 -a 0 -i 0 -k MAC 
- -t 1.009510435 -s 0 -d -1 -p ACK -e 38 -c 2 -a 0 -i 0 -k MAC
h -t 1.009510435 -s 0 -d -1 -p ACK -e 38 -c 2 -a 0 -i 0 -k MAC
r -t 1.009525435 -s 0 -d 0 -p ack -e 40 -c 2 -a 0 -i 1 -k AGT
+ -t 1.009525435 -s 0 -d -1 -p tcp -e 1040 -c 2 -a 0 -i 2 -k AGT 
- -t 1.009525435 -s 0 -d -1 -p tcp -e 1040 -c 2 -a 0 -i 2 -k AGT
h -t 1.009525435 -s 0 -d -1 -p tcp -e 1040 -c 2 -a 0 -i 2 -k AGT
+ -t 1.009525435 -s 0 -d -1 -p tcp -e 1040 -c 2 -a 0 -i 3 -k AGT 
- -t 1.009525435 -s 0 -d -1 -p tcp -e 1040 -c 2 -a 0 -i 3 -k AGT
h -t 1.009525435 -s 0 -d -1 -p tcp -e 1040 -c 2 -a 0 -i 3 -k AGT
+ -t 1.009525435 -s 0 -d 2 -p tcp -e 1040 -c 2 -a 0 -i 2 -k RTR 
- -t 1.009525435 -s 0 -d 2 -p tcp -e 1040 -c 2 -a 0 -i 2 -k RTR
h -t 1.009525435 -s 0 -d 2 -p tcp -e 1040 -c 2 -a 0 -i 2 -k RTR
+ -t 1.009525435 -s 0 -d 2 -p tcp -e 1040 -c 2 -a 0 -i 3 -k RTR 
- -t 1.009525435 -s 0 -d 2 -p tcp -e 1040 -c 2 -a 0 -i 3 -k RTR
h -t 1.009525435 -s 0 -d 2 -p tcp -e 1040 -c 2 -a 0 -i 3 -k RTR
r -t 1.009815251 -s 2 -d -1 -p ACK -e 38 -c 2 -a 0 -i 0 -k MAC
+ -t 1.010064435 -s 0 -d -1 -p RTS -e 44 -c 2 -a 0 -i 0 -k MAC 
- -t 1.010064435 -s 0 -d -1 -p RTS -e 44 -c 2 -a 0 -i 0 -k MAC
h -t 1.010064435 -s 0 -d -1 -p RTS -e 44 -c 2 -a 0 -i 0 -k MAC
r -t 1.010417251 -s 2 -d -1 -p RTS -e 44 -c 2 -a 0 -i 0 -k MAC
+ -t 1.010427251 -s 2 -d -1 -p CTS -e 38 -c 2 -a 0 -i 0 -k MAC 
- -t 1.010427251 -s 2 -d -1 -p CTS -e 38 -c 2 -a 0 -i 0 -k MAC
h -t 1.010427251 -s 2 -d -1 -p CTS -e 38 -c 2 -a 0 -i 0 -k MAC
r -t 1.010732068 -s 0 -d -1 -p CTS -e 38 -c 2 -a 0 -i 0 -k MAC
+ -t 1.010742068 -s 0 -d 2 -p tcp -e 1098 -c 2 -a 0 -i 2 -k MAC 
- -t 1.010742068 -s 0 -d 2 -p tcp -e 1098 -c 2 -a 0 -i 2 -k MAC
h -t 1.010742068 -s 0 -d 2 -p tcp -e 1098 -c 2 -a 0 -i 2 -k MAC
r -t 1.019526884 -s 2 -d 2 -p tcp -e 1040 -c 2 -a 0 -i 2 -k MAC
+ -t 1.019536884 -s 2 -d -1 -p ACK -e 38 -c 2 -a 0 -i 0 -k MAC 
- -t 1.019536884 -s 2 -d -1 -p ACK -e 38 -c 2 -a 0 -i 0 -k MAC
h -t 1.019536884 -s 2 -d -1 -p ACK -e 38 -c 2 -a 0 -i 0 -k MAC
r -t 1.019551884 -s 2 -d 2 -p tcp -e 1040 -c 2 -a 0 -i 2 -k AGT
+ -t 1.019551884 -s 2 -d -1 -p ack -e 40 -c 2 -a 0 -i 4 -k AGT 
- -t 1.019551884 -s 2 -d -1 -p ack -e 40 -c 2 -a 0 -i 4 -k AGT
h -t 1.019551884 -s 2 -d -1 -p ack -e 40 -c 2 -a 0 -i 4 -k AGT
+ -t 1.019551884 -s 2 -d 0 -p ack -e 40 -c 2 -a 0 -i 4 -k RTR 
- -t 1.019551884 -s 2 -d 0 -p ack -e 40 -c 2 -a 0 -i 4 -k RTR
h -t 1.019551884 -s 2 -d 0 -p ack -e 40 -c 2 -a 0 -i 4 -k RTR
r -t 1.019841699 -s 0 -d -1 -p ACK -e 38 -c 2 -a 0 -i 0 -k MAC
+ -t 1.020070884 -s 2 -d -1 -p RTS -e 44 -c 2 -a 0 -i 0 -k MAC 
- -t 1.020070884 -s 2 -d -1 -p RTS -e 44 -c 2 -a 0 -i 0 -k MAC
h -t 1.020070884 -s 2 -d -1 -p RTS -e 44 -c 2 -a 0 -i 0 -k MAC
r -t 1.020423699 -s 0 -d -1 -p RTS -e 44 -c 2 -a 0 -i 0 -k MAC
+ -t 1.020433699 -s 0 -d -1 -p CTS -e 38 -c 2 -a 0 -i 0 -k MAC 
- -t 1.020433699 -s 0 -d -1 -p CTS -e 38 -c 2 -a 0 -i 0 -k MAC
h -t 1.020433699 -s 0 -d -1 -p CTS -e 38 -c 2 -a 0 -i 0 -k MAC
r -t 1.020738515 -s 2 -d -1 -p CTS -e 38 -c 2 -a 0 -i 0 -k MAC
+ -t 1.020748515 -s 2 -d 0 -p ack -e 98 -c 2 -a 0 -i 4 -k MAC 
- -t 1.020748515 -s 2 -d 0 -p ack -e 98 -c 2 -a 0 -i 4 -k MAC
h -t 1.020748515 -s 2 -d 0 -p ack -e 98 -c 2 -a 0 -i 4 -k MAC
r -t 1.021533330 -s 0 -d 0 -p ack -e 40 -c 2 -a 0 -i 4 -k MAC
+ -t 1.021543330 -s 0 -d -1 -p ACK -e 38 -c 2 -a 0 -i 0 -k MAC 
- -t 1.021543330 -s 0 -d -1 -p ACK -e 38 -c 2 -a 0 -i 0 -k MAC
h -t 1.021543330 -s 0 -d -1 -p ACK -e 38 -c 2 -a 0 -i 0 -k MAC
r -t 1.021558330 -s 0 -d 0 -p ack -e 40 -c 2 -a 0 -i 4 -k AGT
+ -t 1.021558330 -s 0 -d -1 -p tcp -e 1040 -c 2 -a 0 -i 5 -k AGT 
- -t 1.021558330 -s 0 -d -1 -p tcp -e 1040 -c 2 -a 0 -i 5 -k AGT
h -t 1.021558330 -s 0 -d -1 -p tcp -e 1040 -c 2 -a 0 -i 5 -k AGT
+ -t 1.021558330 -s 0 -d -1 -p tcp -e 1040 -c 2 -a 0 -i 6 -k AGT 
- -t 1.021558330 -s 0 -d -1 -p tcp -e 1040 -c 2 -a 0 -i 6 -k AGT
h -t 1.021558330 -s 0 -d -1 -p tcp -e 1040 -c 2 -a 0 -i 6 -k AGT
+ -t 1.021558330 -s 0 -d 2 -p tcp -e 1040 -c 2 -a 0 -i 5 -k RTR 
- -t 1.021558330 -s 0 -d 2 -p tcp -e 1040 -c 2 -a 0 -i 5 -k RTR
h -t 1.021558330 -s 0 -d 2 -p tcp -e 1040 -c 2 -a 0 -i 5 -k RTR
+ -t 1.021558330 -s 0 -d 2 -p tcp -e 1040 -c 2 -a 0 -i 6 -k RTR 
- -t 1.021558330 -s 0 -d 2 -p tcp -e 1040 -c 2 -a 0 -i 6 -k RTR
h -t 1.021558330 -s 0 -d 2 -p tcp -e 1040 -c 2 -a 0 -i 6 -k RTR
r -t 1.021848145 -s 2 -d -1 -p ACK -e 38 -c 2 -a 0 -i 0 -k MAC
+ -t 1.021997330 -s 0 -d -1 -p RTS -e 44 -c 2 -a 0 -i 0 -k MAC 
- -t 1.021997330 -s 0 -d -1 -p RTS -e 44 -c 2 -a 0 -i 0 -k MAC
h -t 1.021997330 -s 0 -d -1 -p RTS -e 44 -c 2 -a 0 -i 0 -k MAC
r -t 1.022350145 -s 2 -d -1 -p RTS -e 44 -c 2 -a 0 -i 0 -k MAC
+ -t 1.022360145 -s 2 -d -1 -p CTS -e 38 -c 2 -a 0 -i 0 -k MAC 
- -t 1.022360145 -s 2 -d -1 -p CTS -e 38 -c 2 -a 0 -i 0 -k MAC
h -t 1.022360145 -s 2 -d -1 -p CTS -e 38 -c 2 -a 0 -i 0 -k MAC
r -t 1.022664961 -s 0 -d -1 -p CTS -e 38 -c 2 -a 0 -i 0 -k MAC
+ -t 1.022674961 -s 0 -d 2 -p tcp -e 1098 -c 2 -a 0 -i 3 -k MAC 
- -t 1.022674961 -s 0 -d 2 -p tcp -e 1098 -c 2 -a 0 -i 3 -k MAC
h -t 1.022674961 -s 0 -d 2 -p tcp -e 1098 -c 2 -a 0 -i 3 -k MAC
r -t 1.031459776 -s 2 -d 2 -p tcp -e 1040 -c 2 -a 0 -i 3 -k MAC
+ -t 1.031469776 -s 2 -d -1 -p ACK -e 38 -c 2 -a 0 -i 0 -k MAC 
- -t 1.031469776 -s 2 -d -1 -p ACK -e 38 -c 2 -a 0 -i 0 -k MAC
h -t 1.031469776 -s 2 -d -1 -p ACK -e 38 -c 2 -a 0 -i 0 -k MAC
r -t 1.031484776 -s 2 -d 2 -p tcp -e 1040 -c 2 -a 0 -i 3 -k AGT
+ -t 1.031484776 -s 2 -d -1 -p ack -e 40 -c 2 -a 0 -i 7 -k AGT 
- -t 1.031484776 -s 2 -d -1 -p ack -e 40 -c 2 -a 0 -i 7 -k AGT
h -t 1.031484776 -s 2 -d -1 -p ack -e 40 -c 2 -a 0 -i 7 -k AGT
+ -t 1.031484776 -s 2 -d 0 -p ack -e 40 -c 2 -a 0 -i 7 -k RTR 
- -t 1.031484776 -s 2 -d 0 -p ack -e 40 -c 2 -a 0 -i 7 -k RTR
h -t 1.031484776 -s 2 -d 0 -p ack -e 40 -c 2 -a 0 -i 7 -k RTR
r -t 1.031774590 -s 0 -d -1 -p ACK -e 38 -c 2 -a 0 -i 0 -k MAC
+ -t 1.031864590 -s 0 -d -1 -p RTS -e 44 -c 2 -a 0 -i 0 -k MAC 
- -t 1.031864590 -s 0 -d -1 -p RTS -e 44 -c 2 -a 0 -i 0 -k MAC
h -t 1.031864590 -s 0 -d -1 -p RTS -e 44 -c 2 -a 0 -i 0 -k MAC
r -t 1.032217405 -s 2 -d -1 -p RTS -e 44 -c 2 -a 0 -i 0 -k MAC
+ -t 1.032227405 -s 2 -d -1 -p CTS -e 38 -c 2 -a 0 -i 0 -k MAC 
- -t 1.032227405 -s 2 -d -1 -p CTS -e 38 -c 2 -a 0 -i 0 -k MAC
h -t 1.032227405 -s 2 -d -1 -p CTS -e 38 -c 2 -a 0 -i 0 -k MAC
r -t 1.032532219 -s 0 -d -1 -p CTS -e 38 -c 2 -a 0 -i 0 -k MAC
+ -t 1.032542219 -s 0 -d 2 -p tcp -e 1098 -c 2 -a 0 -i 5 -k MAC 
- -t 1.032542219 -s 0 -d 2 -p tcp -e 1098 -c 2 -a 0 -i 5 -k MAC
h -t 1.032542219 -s 0 -d 2 -p tcp -e 1098 -c 2 -a 0 -i 5 -k MAC
r -t 1.041327033 -s 2 -d 2 -p tcp -e 1040 -c 2 -a 0 -i 5 -k MAC
+ -t 1.041337033 -s 2 -d -1 -p ACK -e 38 -c 2 -a 0 -i 0 -k MAC 
- -t 1.041337033 -s 2 -d -1 -p ACK -e 38 -c 2 -a 0 -i 0 -k MAC
h -t 1.041337033 -s 2 -d -1 -p ACK -e 38 -c 2 -a 0 -i 0 -k MAC
r -t 1.041352033 -s 2 -d 2 -p tcp -e 1040 -c 2 -a 0 -i 5 -k AGT
+ -t 1.041352033 -s 2 -d -1 -p ack -e 40 -c 2 -a 0 -i 8 -k AGT 
- -t 1.041352033 -s 2 -d -1 -p ack -e 40 -c 2 -a 0 -i 8 -k AGT
h -t 1.041352033 -s 2 -d -1 -p ack -e 40 -c 2 -a 0 -i 8 -k AGT
+ -t 1.041352033 -s 2 -d 0 -p ack -e 40 -c 2 -a 0 -i 8 -k RTR 
- -t 1.041352033 -s 2 -d 0 -p ack -e 40 -c 2 -a 0 -i 8 -k RTR
h -t 1.041352033 -s 2 -d 0 -p ack -e 40 -c 2 -a 0 -i 8 -k RTR
r -t 1.041641847 -s 0 -d -1 -p ACK -e 38 -c 2 -a 0 -i 0 -k MAC
+ -t 1.041811033 -s 2 -d -1 -p RTS -e 44 -c 2 -a 0 -i 0 -k MAC 
- -t 1.041811033 -s 2 -d -1 -p RTS -e 44 -c 2 -a 0 -i 0 -k MAC
h -t 1.041811033 -s 2 -d -1 -p RTS -e 44 -c 2 -a 0 -i 0 -k MAC
r -t 1.042163847 -s 0 -d -1 -p RTS -e 44 -c 2 -a 0 -i 0 -k MAC
+ -t 1.042173847 -s 0 -d -1 -p CTS -e 38 -c 2 -a 0 -i 0 -k MAC 
- -t 1.042173847 -s 0 -d -1 -p CTS -e 38 -c 2 -a 0 -i 0 -k MAC
h -t 1.042173847 -s 0 -d -1 -p CTS -e 38 -c 2 -a 0 -i 0 -k MAC
r -t 1.042478660 -s 2 -d -1 -p CTS -e 38 -c 2 -a 0 -i 0 -k MAC
+ -t 1.042488660 -s 2 -d 0 -p ack -e 98 -c 2 -a 0 -i 7 -k MAC 
- -t 1.042488660 -s 2 -d 0 -p ack -e 98 -c 2 -a 0 -i 7 -k MAC
h -t 1.042488660 -s 2 -d 0 -p ack -e 98 -c 2 -a 0 -i 7 -k MAC
r -t 1.043273474 -s 0 -d 0 -p ack -e 40 -c 2 -a 0 -i 7 -k MAC
+ -t 1.043283474 -s 0 -d -1 -p ACK -e 38 -c 2 -a 0 -i 0 -k MAC 
- -t 1.043283474 -s 0 -d -1 -p ACK -e 38 -c 2 -a 0 -i 0 -k MAC
h -t 1.043283474 -s 0 -d -1 -p ACK -e 38 -c 2 -a 0 -i 0 -k MAC
r -t 1.043298474 -s 0 -d 0 -p ack -e 40 -c 2 -a 0 -i 7 -k AGT
+ -t 1.043298474 -s 0 -d -1 -p tcp -e 1040 -c 2 -a 0 -i 9 -k AGT 
- -t 1.043298474 -s 0 -d -1 -p tcp -e 1040 -c 2 -a 0 -i 9 -k AGT
h -t 1.043298474 -s 0 -d -1 -p tcp -e 1040 -c 2 -a 0 -i 9 -k AGT
+ -t 1.043298474 -s 0 -d -1 -p tcp -e 1040 -c 2 -a 0 -i 10 -k AGT 
- -t 1.043298474 -s 0 -d -1 -p tcp -e 1040 -c 2 -a 0 -i 10 -k AGT
h -t 1.043298474 -s 0 -d -1 -p tcp -e 1040 -c 2 -a 0 -i 10 -k AGT
+ -t 1.043298474 -s 0 -d 2 -p tcp -e 1040 -c 2 -a 0 -i 9 -k RTR 
- -t 1.043298474 -s 0 -d 2 -p tcp -e 1040 -c 2 -a 0 -i 9 -k RTR
h -t 1.043298474 -s 0 -d 2 -p tcp -e 1040 -c 2 -a 0 -i 9 -k RTR
+ -t 1.043298474 -s 0 -d 2 -p tcp -e 1040 -c 2 -a 0 -i 10 -k RTR 
- -t 1.043298474 -s 0 -d 2 -p tcp -e 1040 -c 2 -a 0 -i 10 -k RTR
h -t 1.043298474 -s 0 -d 2 -p tcp -e 1040 -c 2 -a 0 -i 10 -k RTR
r -t 1.043588287 -s 2 -d -1 -p ACK -e 38 -c 2 -a 0 -i 0 -k MAC
+ -t 1.043798287 -s 2 -d -1 -p RTS -e 44 -c 2 -a 0 -i 0 -k MAC 
- -t 1.043798287 -s 2 -d -1 -p RTS -e 44 -c 2 -a 0 -i 0 -k MAC
h -t 1.043798287 -s 2 -d -1 -p RTS -e 44 -c 2 -a 0 -i 0 -k MAC
r -t 1.044151100 -s 0 -d -1 -p RTS -e 44 -c 2 -a 0 -i 0 -k MAC
+ -t 1.044161100 -s 0 -d -1 -p CTS -e 38 -c 2 -a 0 -i 0 -k MAC 
- -t 1.044161100 -s 0 -d -1 -p CTS -e 38 -c 2 -a 0 -i 0 -k MAC
h -t 1.044161100 -s 0 -d -1 -p CTS -e 38 -c 2 -a 0 -i 0 -k MAC
r -t 1.044465914 -s 2 -d -1 -p CTS -e 38 -c 2 -a 0 -i 0 -k MAC
+ -t 1.044475914 -s 2 -d 0 -p ack -e 98 -c 2 -a 0 -i 8 -k MAC 
- -t 1.044475914 -s 2 -d 0 -p ack -e 98 -c 2 -a 0 -i 8 -k MAC
h -t 1.044475914 -s 2 -d 0 -p ack -e 98 -c 2 -a 0 -i 8 -k MAC
r -t 1.045260727 -s 0 -d 0 -p ack -e 40 -c 2 -a 0 -i 8 -k MAC
+ -t 1.045270727 -s 0 -d -1 -p ACK -e 38 -c 2 -a 0 -i 0 -k MAC 
- -t 1.045270727 -s 0 -d -1 -p ACK -e 38 -c 2 -a 0 -i 0 -k MAC
h -t 1.045270727 -s 0 -d -1 -p ACK -e 38 -c 2 -a 0 -i 0 -k MAC
r -t 1.045285727 -s 0 -d 0 -p ack -e 40 -c 2 -a 0 -i 8 -k AGT
+ -t 1.045285727 -s 0 -d -1 -p tcp -e 1040 -c 2 -a 0 -i 11 -k AGT 
- -t 1.045285727 -s 0 -d -1 -p tcp -e 1040 -c 2 -a 0 -i 11 -k AGT
h -t 1.045285727 -s 0 -d -1 -p tcp -e 1040 -c 2 -a 0 -i 11 -k AGT
+ -t 1.045285727 -s 0 -d -1 -p tcp -e 1040 -c 2 -a 0 -i 12 -k AGT 
- -t 1.045285727 -s 0 -d -1 -p tcp -e 1040 -c 2 -a 0 -i 12 -k AGT
h -t 1.045285727 -s 0 -d -1 -p tcp -e 1040 -c 2 -a 0 -i 12 -k AGT
+ -t 1.045285727 -s 0 -d 2 -p tcp -e 1040 -c 2 -a 0 -i 11 -k RTR 
- -t 1.045285727 -s 0 -d 2 -p tcp -e 1040 -c 2 -a 0 -i 11 -k RTR
h -t 1.045285727 -s 0 -d 2 -p tcp -e 1040 -c 2 -a 0 -i 11 -k RTR
+ -t 1.045285727 -s 0 -d 2 -p tcp -e 1040 -c 2 -a 0 -i 12 -k RTR 
- -t 1.045285727 -s 0 -d 2 -p tcp -e 1040 -c 2 -a 0 -i 12 -k RTR
h -t 1.045285727 -s 0 -d 2 -p tcp -e 1040 -c 2 -a 0 -i 12 -k RTR
r -t 1.045575540 -s 2 -d -1 -p ACK -e 38 -c 2 -a 0 -i 0 -k MAC
+ -t 1.045904727 -s 0 -d -1 -p RTS -e 44 -c 2 -a 0 -i 0 -k MAC 
- -t 1.045904727 -s 0 -d -1 -p RTS -e 44 -c 2 -a 0 -i 0 -k MAC
h -t 1.045904727 -s 0 -d -1 -p RTS -e 44 -c 2 -a 0 -i 0 -k MAC
r -t 1.046257540 -s 2 -d -1 -p RTS -e 44 -c 2 -a 0 -i 0 -k MAC
+ -t 1.046267540 -s 2 -d -1 -p CTS -e 38 -c 2 -a 0 -i 0 -k MAC 
- -t 1.046267540 -s 2 -d -1 -p CTS -e 38 -c 2 -a 0 -i 0 -k MAC
h -t 1.046267540 -s 2 -d -1 -p CTS -e 38 -c 2 -a 0 -i 0 -k MAC
r -t 1.046572353 -s 0 -d -1 -p CTS -e 38 -c 2 -a 0 -i 0 -k MAC
+ -t 1.046582353 -s 0 -d 2 -p tcp -e 1098 -c 2 -a 0 -i 6 -k MAC 
- -t 1.046582353 -s 0 -d 2 -p tcp -e 1098 -c 2 -a 0 -i 6 -k MAC
h -t 1.046582353 -s 0 -d 2 -p tcp -e 1098 -c 2 -a 0 -i 6 -k MAC
r -t 1.055367166 -s 2 -d 2 -p tcp -e 1040 -c 2 -a 0 -i 6 -k MAC
+ -t 1.055377166 -s 2 -d -1 -p ACK -e 38 -c 2 -a 0 -i 0 -k MAC 
- -t 1.055377166 -s 2 -d -1 -p ACK -e 38 -c 2 -a 0 -i 0 -k MAC
h -t 1.055377166 -s 2 -d -1 -p ACK -e 38 -c 2 -a 0 -i 0 -k MAC
r -t 1.055392166 -s 2 -d 2 -p tcp -e 1040 -c 2 -a 0 -i 6 -k AGT
+ -t 1.055392166 -s 2 -d -1 -p ack -e 40 -c 2 -a 0 -i 13 -k AGT 
- -t 1.055392166 -s 2 -d -1 -p ack -e 40 -c 2 -a 0 -i 13 -k AGT
h -t 1.055392166 -s 2 -d -1 -p ack -e 40 -c 2 -a 0 -i 13 -k AGT
+ -t 1.055392166 -s 2 -d 0 -p ack -e 40 -c 2 -a 0 -i 13 -k RTR 
- -t 1.055392166 -s 2 -d 0 -p ack -e 40 -c 2 -a 0 -i 13 -k RTR
h -t 1.055392166 -s 2 -d 0 -p ack -e 40 -c 2 -a 0 -i 13 -k RTR
r -t 1.055681979 -s 0 -d -1 -p ACK -e 38 -c 2 -a 0 -i 0 -k MAC
+ -t 1.055831166 -s 2 -d -1 -p RTS -e 44 -c 2 -a 0 -i 0 -k MAC 
- -t 1.055831166 -s 2 -d -1 -p RTS -e 44 -c 2 -a 0 -i 0 -k MAC
h -t 1.055831166 -s 2 -d -1 -p RTS -e 44 -c 2 -a 0 -i 0 -k MAC
r -t 1.056183979 -s 0 -d -1 -p RTS -e 44 -c 2 -a 0 -i 0 -k MAC
+ -t 1.056193979 -s 0 -d -1 -p CTS -e 38 -c 2 -a 0 -i 0 -k MAC 
- -t 1.056193979 -s 0 -d -1 -p CTS -e 38 -c 2 -a 0 -i 0 -k MAC
h -t 1.056193979 -s 0 -d -1 -p CTS -e 38 -c 2 -a 0 -i 0 -k MAC
r -t 1.056498791 -s 2 -d -1 -p CTS -e 38 -c 2 -a 0 -i 0 -k MAC
+ -t 1.056508791 -s 2 -d 0 -p ack -e 98 -c 2 -a 0 -i 13 -k MAC 
- -t 1.056508791 -s 2 -d 0 -p ack -e 98 -c 2 -a 0 -i 13 -k MAC
h -t 1.056508791 -s 2 -d 0 -p ack -e 98 -c 2 -a 0 -i 13 -k MAC
r -t 1.057293603 -s 0 -d 0 -p ack -e 40 -c 2 -a 0 -i 13 -k MAC
+ -t 1.057303603 -s 0 -d -1 -p ACK -e 38 -c 2 -a 0 -i 0 -k MAC 
- -t 1.057303603 -s 0 -d -1 -p ACK -e 38 -c 2 -a 0 -i 0 -k MAC
h -t 1.057303603 -s 0 -d -1 -p ACK -e 38 -c 2 -a 0 -i 0 -k MAC
r -t 1.057318603 -s 0 -d 0 -p ack -e 40 -c 2 -a 0 -i 13 -k AGT
+ -t 1.057318603 -s 0 -d -1 -p tcp -e 1040 -c 2 -a 0 -i 14 -k AGT 
- -t 1.057318603 -s 0 -d -1 -p tcp -e 1040 -c 2 -a 0 -i 14 -k AGT
h -t 1.057318603 -s 0 -d -1 -p tcp -e 1040 -c 2 -a 0 -i 14 -k AGT
+ -t 1.057318603 -s 0 -d -1 -p tcp -e 1040 -c 2 -a 0 -i 15 -k AGT 
- -t 1.057318603 -s 0 -d -1 -p tcp -e 1040 -c 2 -a 0 -i 15 -k AGT
h -t 1.057318603 -s 0 -d -1 -p tcp -e 1040 -c 2 -a 0 -i 15 -k AGT
+ -t 1.057318603 -s 0 -d 2 -p tcp -e 1040 -c 2 -a 0 -i 14 -k RTR 
- -t 1.057318603 -s 0 -d 2 -p tcp -e 1040 -c 2 -a 0 -i 14 -k RTR
h -t 1.057318603 -s 0 -d 2 -p tcp -e 1040 -c 2 -a 0 -i 14 -k RTR
+ -t 1.057318603 -s 0 -d 2 -p tcp -e 1040 -c 2 -a 0 -i 15 -k RTR 
- -t 1.057318603 -s 0 -d 2 -p tcp -e 1040 -c 2 -a 0 -i 15 -k RTR
h -t 1.057318603 -s 0 -d 2 -p tcp -e 1040 -c 2 -a 0 -i 15 -k RTR
r -t 1.057608415 -s 2 -d -1 -p ACK -e 38 -c 2 -a 0 -i 0 -k MAC
+ -t 1.057817603 -s 0 -d -1 -p RTS -e 44 -c 2 -a 0 -i 0 -k MAC 
- -t 1.057817603 -s 0 -d -1 -p RTS -e 44 -c 2 -a 0 -i 0 -k MAC
h -t 1.057817603 -s 0 -d -1 -p RTS -e 44 -c 2 -a 0 -i 0 -k MAC
r -t 1.058170415 -s 2 -d -1 -p RTS -e 44 -c 2 -a 0 -i 0 -k MAC
+ -t 1.058180415 -s 2 -d -1 -p CTS -e 38 -c 2 -a 0 -i 0 -k MAC 
- -t 1.058180415 -s 2 -d -1 -p CTS -e 38 -c 2 -a 0 -i 0 -k MAC
h -t 1.058180415 -s 2 -d -1 -p CTS -e 38 -c 2 -a 0 -i 0 -k MAC
r -t 1.058485227 -s 0 -d -1 -p CTS -e 38 -c 2 -a 0 -i 0 -k MAC
+ -t 1.058495227 -s 0 -d 2 -p tcp -e 1098 -c 2 -a 0 -i 9 -k MAC 
- -t 1.058495227 -s 0 -d 2 -p tcp -e 1098 -c 2 -a 0 -i 9 -k MAC
h -t 1.058495227 -s 0 -d 2 -p tcp -e 1098 -c 2 -a 0 -i 9 -k MAC
r -t 1.067280039 -s 2 -d 2 -p tcp -e 1040 -c 2 -a 0 -i 9 -k MAC
+ -t 1.067290039 -s 2 -d -1 -p ACK -e 38 -c 2 -a 0 -i 0 -k MAC 
- -t 1.067290039 -s 2 -d -1 -p ACK -e 38 -c 2 -a 0 -i 0 -k MAC
h -t 1.067290039 -s 2 -d -1 -p ACK -e 38 -c 2 -a 0 -i 0 -k MAC
r -t 1.067305039 -s 2 -d 2 -p tcp -e 1040 -c 2 -a 0 -i 9 -k AGT
+ -t 1.067305039 -s 2 -d -1 -p ack -e 40 -c 2 -a 0 -i 16 -k AGT 
- -t 1.067305039 -s 2 -d -1 -p ack -e 40 -c 2 -a 0 -i 16 -k AGT
h -t 1.067305039 -s 2 -d -1 -p ack -e 40 -c 2 -a 0 -i 16 -k AGT
+ -t 1.067305039 -s 2 -d 0 -p ack -e 40 -c 2 -a 0 -i 16 -k RTR 
- -t 1.067305039 -s 2 -d 0 -p ack -e 40 -c 2 -a 0 -i 16 -k RTR
h -t 1.067305039 -s 2 -d 0 -p ack -e 40 -c 2 -a 0 -i 16 -k RTR
r -t 1.067594851 -s 0 -d -1 -p ACK -e 38 -c 2 -a 0 -i 0 -k MAC
+ -t 1.067664039 -s 2 -d -1 -p RTS -e 44 -c 2 -a 0 -i 0 -k MAC 
- -t 1.067664039 -s 2 -d -1 -p RTS -e 44 -c 2 -a 0 -i 0 -k MAC
h -t 1.067664039 -s 2 -d -1 -p RTS -e 44 -c 2 -a 0 -i 0 -k MAC
r -t 1.068016851 -s 0 -d -1 -p RTS -e 44 -c 2 -a 0 -i 0 -k MAC
+ -t 1.068026851 -s 0 -d -1 -p CTS -e 38 -c 2 -a 0 -i 0 -k MAC 
- -t 1.068026851 -s 0 -d -1 -p CTS -e 38 -c 2 -a 0 -i 0 -k MAC
h -t 1.068026851 -s 0 -d -1 -p CTS -e 38 -c 2 -a 0 -i 0 -k MAC
r -t 1.068331662 -s 2 -d -1 -p CTS -e 38 -c 2 -a 0 -i 0 -k MAC
+ -t 1.068341662 -s 2 -d 0 -p ack -e 98 -c 2 -a 0 -i 16 -k MAC 
- -t 1.068341662 -s 2 -d 0 -p ack -e 98 -c 2 -a 0 -i 16 -k MAC
h -t 1.068341662 -s 2 -d 0 -p ack -e 98 -c 2 -a 0 -i 16 -k MAC
r -t 1.069126473 -s 0 -d 0 -p ack -e 40 -c 2 -a 0 -i 16 -k MAC
+ -t 1.069136473 -s 0 -d -1 -p ACK -e 38 -c 2 -a 0 -i 0 -k MAC 
- -t 1.069136473 -s 0 -d -1 -p ACK -e 38 -c 2 -a 0 -i 0 -k MAC
h -t 1.069136473 -s 0 -d -1 -p ACK -e 38 -c 2 -a 0 -i 0 -k MAC
r -t 1.069151473 -s 0 -d 0 -p ack -e 40 -c 2 -a 0 -i 16 -k AGT
+ -t 1.069151473 -s 0 -d -1 -p tcp -e 1040 -c 2 -a 0 -i 17 -k AGT 
- -t 1.069151473 -s 0 -d -1 -p tcp -e 1040 -c 2 -a 0 -i 17 -k AGT
h -t 1.069151473 -s 0 -d -1 -p tcp -e 1040 -c 2 -a 0 -i 17 -k AGT
+ -t 1.069151473 -s 0 -d -1 -p tcp -e 1040 -c 2 -a 0 -i 18 -k AGT 
- -t 1.069151473 -s 0 -d -1 -p tcp -e 1040 -c 2 -a 0 -i 18 -k AGT
h -t 1.069151473 -s 0 -d -1 -p tcp -e 1040 -c 2 -a 0 -i 18 -k AGT
+ -t 1.069151473 -s 0 -d 2 -p tcp -e 1040 -c 2 -a 0 -i 17 -k RTR 
- -t 1.069151473 -s 0 -d 2 -p tcp -e 1040 -c 2 -a 0 -i 17 -k RTR
h -t 1.069151473 -s 0 -d 2 -p tcp -e 1040 -c 2 -a 0 -i 17 -k RTR
+ -t 1.069151473 -s 0 -d 2 -p tcp -e 1040 -c 2 -a 0 -i 18 -k RTR 
- -t 1.069151473 -s 0 -d 2 -p tcp -e 1040 -c 2 -a 0 -i 18 -k RTR
h -t 1.069151473 -s 0 -d 2 -p tcp -e 1040 -c 2 -a 0 -i 18 -k RTR
r -t 1.069441284 -s 2 -d -1 -p ACK -e 38 -c 2 -a 0 -i 0 -k MAC
+ -t 1.069970473 -s 0 -d -1 -p RTS -e 44 -c 2 -a 0 -i 0 -k MAC 
- -t 1.069970473 -s 0 -d -1 -p RTS -e 44 -c 2 -a 0 -i 0 -k MAC
h -t 1.069970473 -s 0 -d -1 -p RTS -e 44 -c 2 -a 0 -i 0 -k MAC
r -t 1.070323284 -s 2 -d -1 -p RTS -e 44 -c 2 -a 0 -i 0 -k MAC
+ -t 1.070333284 -s 2 -d -1 -p CTS -e 38 -c 2 -a 0 -i 0 -k MAC 
- -t 1.070333284 -s 2 -d -1 -p CTS -e 38 -c 2 -a 0 -i 0 -k MAC
h -t 1.070333284 -s 2 -d -1 -p CTS -e 38 -c 2 -a 0 -i 0 -k MAC
r -t 1.070638095 -s 0 -d -1 -p CTS -e 38 -c 2 -a 0 -i 0 -k MAC
+ -t 1.070648095 -s 0 -d 2 -p tcp -e 1098 -c 2 -a 0 -i 10 -k MAC 
- -t 1.070648095 -s 0 -d 2 -p tcp -e 1098 -c 2 -a 0 -i 10 -k MAC
h -t 1.070648095 -s 0 -d 2 -p tcp -e 1098 -c 2 -a 0 -i 10 -k MAC
r -t 1.079432906 -s 2 -d 2 -p tcp -e 1040 -c 2 -a 0 -i 10 -k MAC
+ -t 1.079442906 -s 2 -d -1 -p ACK -e 38 -c 2 -a 0 -i 0 -k MAC 
- -t 1.079442906 -s 2 -d -1 -p ACK -e 38 -c 2 -a 0 -i 0 -k MAC
h -t 1.079442906 -s 2 -d -1 -p ACK -e 38 -c 2 -a 0 -i 0 -k MAC
r -t 1.079457906 -s 2 -d 2 -p tcp -e 1040 -c 2 -a 0 -i 10 -k AGT
+ -t 1.079457906 -s 2 -d -1 -p ack -e 40 -c 2 -a 0 -i 19 -k AGT 
- -t 1.079457906 -s 2 -d -1 -p ack -e 40 -c 2 -a 0 -i 19 -k AGT
h -t 1.079457906 -s 2 -d -1 -p ack -e 40 -c 2 -a 0 -i 19 -k AGT
+ -t 1.079457906 -s 2 -d 0 -p ack -e 40 -c 2 -a 0 -i 19 -k RTR 
- -t 1.079457906 -s 2 -d 0 -p ack -e 40 -c 2 -a 0 -i 19 -k RTR
h -t 1.079457906 -s 2 -d 0 -p ack -e 40 -c 2 -a 0 -i 19 -k RTR
r -t 1.079747716 -s 0 -d -1 -p ACK -e 38 -c 2 -a 0 -i 0 -k MAC
+ -t 1.079997716 -s 0 -d -1 -p RTS -e 44 -c 2 -a 0 -i 0 -k MAC 
- -t 1.079997716 -s 0 -d -1 -p RTS -e 44 -c 2 -a 0 -i 0 -k MAC
h -t 1.079997716 -s 0 -d -1 -p RTS -e 44 -c 2 -a 0 -i 0 -k MAC
r -t 1.080350526 -s 2 -d -1 -p RTS -e 44 -c 2 -a 0 -i 0 -k MAC
+ -t 1.080360526 -s 2 -d -1 -p CTS -e 38 -c 2 -a 0 -i 0 -k MAC 
- -t 1.080360526 -s 2 -d -1 -p CTS -e 38 -c 2 -a 0 -i 0 -k MAC
h -t 1.080360526 -s 2 -d -1 -p CTS -e 38 -c 2 -a 0 -i 0 -k MAC
r -t 1.080665336 -s 0 -d -1 -p CTS -e 38 -c 2 -a 0 -i 0 -k MAC
+ -t 1.080675336 -s 0 -d 2 -p tcp -e 1098 -c 2 -a 0 -i 11 -k MAC 
- -t 1.080675336 -s 0 -d 2 -p tcp -e 1098 -c 2 -a 0 -i 11 -k MAC
h -t 1.080675336 -s 0 -d 2 -p tcp -e 1098 -c 2 -a 0 -i 11 -k MAC
r -t 1.089460147 -s 2 -d 2 -p tcp -e 1040 -c 2 -a 0 -i 11 -k MAC
+ -t 1.089470147 -s 2 -d -1 -p ACK -e 38 -c 2 -a 0 -i 0 -k MAC 
- -t 1.089470147 -s 2 -d -1 -p ACK -e 38 -c 2 -a 0 -i 0 -k MAC
h -t 1.089470147 -s 2 -d -1 -p ACK -e 38 -c 2 -a 0 -i 0 -k MAC
r -t 1.089485147 -s 2 -d 2 -p tcp -e 1040 -c 2 -a 0 -i 11 -k AGT
+ -t 1.089485147 -s 2 -d -1 -p ack -e 40 -c 2 -a 0 -i 20 -k AGT 
- -t 1.089485147 -s 2 -d -1 -p ack -e 40 -c 2 -a 0 -i 20 -k AGT
h -t 1.089485147 -s 2 -d -1 -p ack -e 40 -c 2 -a 0 -i 20 -k AGT
+ -t 1.089485147 -s 2 -d 0 -p ack -e 40 -c 2 -a 0 -i 20 -k RTR 
- -t 1.089485147 -s 2 -d 0 -p ack -e 40 -c 2 -a 0 -i 20 -k RTR
h -t 1.089485147 -s 2 -d 0 -p ack -e 40 -c 2 -a 0 -i 20 -k RTR
r -t 1.089774956 -s 0 -d -1 -p ACK -e 38 -c 2 -a 0 -i 0 -k MAC
+ -t 1.089944147 -s 2 -d -1 -p RTS -e 44 -c 2 -a 0 -i 0 -k MAC 
- -t 1.089944147 -s 2 -d -1 -p RTS -e 44 -c 2 -a 0 -i 0 -k MAC
h -t 1.089944147 -s 2 -d -1 -p RTS -e 44 -c 2 -a 0 -i 0 -k MAC
r -t 1.090296956 -s 0 -d -1 -p RTS -e 44 -c 2 -a 0 -i 0 -k MAC
+ -t 1.090306956 -s 0 -d -1 -p CTS -e 38 -c 2 -a 0 -i 0 -k MAC 
- -t 1.090306956 -s 0 -d -1 -p CTS -e 38 -c 2 -a 0 -i 0 -k MAC
h -t 1.090306956 -s 0 -d -1 -p CTS -e 38 -c 2 -a 0 -i 0 -k MAC
r -t 1.090611765 -s 2 -d -1 -p CTS -e 38 -c 2 -a 0 -i 0 -k MAC
+ -t 1.090621765 -s 2 -d 0 -p ack -e 98 -c 2 -a 0 -i 19 -k MAC 
- -t 1.090621765 -s 2 -d 0 -p ack -e 98 -c 2 -a 0 -i 19 -k MAC
h -t 1.090621765 -s 2 -d 0 -p ack -e 98 -c 2 -a 0 -i 19 -k MAC
r -t 1.091406574 -s 0 -d 0 -p ack -e 40 -c 2 -a 0 -i 19 -k MAC
+ -t 1.091416574 -s 0 -d -1 -p ACK -e 38 -c 2 -a 0 -i 0 -k MAC 
- -t 1.091416574 -s 0 -d -1 -p ACK -e 38 -c 2 -a 0 -i 0 -k MAC
h -t 1.091416574 -s 0 -d -1 -p ACK -e 38 -c 2 -a 0 -i 0 -k MAC
r -t 1.091431574 -s 0 -d 0 -p ack -e 40 -c 2 -a 0 -i 19 -k AGT
+ -t 1.091431574 -s 0 -d -1 -p tcp -e 1040 -c 2 -a 0 -i 21 -k AGT 
- -t 1.091431574 -s 0 -d -1 -p tcp -e 1040 -c 2 -a 0 -i 21 -k AGT
h -t 1.091431574 -s 0 -d -1 -p tcp -e 1040 -c 2 -a 0 -i 21 -k AGT
+ -t 1.091431574 -s 0 -d -1 -p tcp -e 1040 -c 2 -a 0 -i 22 -k AGT 
- -t 1.091431574 -s 0 -d -1 -p tcp -e 1040 -c 2 -a 0 -i 22 -k AGT
h -t 1.091431574 -s 0 -d -1 -p tcp -e 1040 -c 2 -a 0 -i 22 -k AGT
+ -t 1.091431574 -s 0 -d 2 -p tcp -e 1040 -c 2 -a 0 -i 21 -k RTR 
- -t 1.091431574 -s 0 -d 2 -p tcp -e 1040 -c 2 -a 0 -i 21 -k RTR
h -t 1.091431574 -s 0 -d 2 -p tcp -e 1040 -c 2 -a 0 -i 21 -k RTR
+ -t 1.091431574 -s 0 -d 2 -p tcp -e 1040 -c 2 -a 0 -i 22 -k RTR 
- -t 1.091431574 -s 0 -d 2 -p tcp -e 1040 -c 2 -a 0 -i 22 -k RTR
h -t 1.091431574 -s 0 -d 2 -p tcp -e 1040 -c 2 -a 0 -i 22 -k RTR
r -t 1.091721384 -s 2 -d -1 -p ACK -e 38 -c 2 -a 0 -i 0 -k MAC
+ -t 1.091791384 -s 2 -d -1 -p RTS -e 44 -c 2 -a 0 -i 0 -k MAC 
- -t 1.091791384 -s 2 -d -1 -p RTS -e 44 -c 2 -a 0 -i 0 -k MAC
h -t 1.091791384 -s 2 -d -1 -p RTS -e 44 -c 2 -a 0 -i 0 -k MAC
r -t 1.092144193 -s 0 -d -1 -p RTS -e 44 -c 2 -a 0 -i 0 -k MAC
+ -t 1.092154193 -s 0 -d -1 -p CTS -e 38 -c 2 -a 0 -i 0 -k MAC 
- -t 1.092154193 -s 0 -d -1 -p CTS -e 38 -c 2 -a 0 -i 0 -k MAC
h -t 1.092154193 -s 0 -d -1 -p CTS -e 38 -c 2 -a 0 -i 0 -k MAC
r -t 1.092459002 -s 2 -d -1 -p CTS -e 38 -c 2 -a 0 -i 0 -k MAC
+ -t 1.092469002 -s 2 -d 0 -p ack -e 98 -c 2 -a 0 -i 20 -k MAC 
- -t 1.092469002 -s 2 -d 0 -p ack -e 98 -c 2 -a 0 -i 20 -k MAC
h -t 1.092469002 -s 2 -d 0 -p ack -e 98 -c 2 -a 0 -i 20 -k MAC
r -t 1.093253811 -s 0 -d 0 -p ack -e 40 -c 2 -a 0 -i 20 -k MAC
+ -t 1.093263811 -s 0 -d -1 -p ACK -e 38 -c 2 -a 0 -i 0 -k MAC 
- -t 1.093263811 -s 0 -d -1 -p ACK -e 38 -c 2 -a 0 -i 0 -k MAC
h -t 1.093263811 -s 0 -d -1 -p ACK -e 38 -c 2 -a 0 -i 0 -k MAC
r -t 1.093278811 -s 0 -d 0 -p ack -e 40 -c 2 -a 0 -i 20 -k AGT
+ -t 1.093278811 -s 0 -d -1 -p tcp -e 1040 -c 2 -a 0 -i 23 -k AGT 
- -t 1.093278811 -s 0 -d -1 -p tcp -e 1040 -c 2 -a 0 -i 23 -k AGT
h -t 1.093278811 -s 0 -d -1 -p tcp -e 1040 -c 2 -a 0 -i 23 -k AGT
+ -t 1.093278811 -s 0 -d -1 -p tcp -e 1040 -c 2 -a 0 -i 24 -k AGT 
- -t 1.093278811 -s 0 -d -1 -p tcp -e 1040 -c 2 -a 0 -i 24 -k AGT
h -t 1.093278811 -s 0 -d -1 -p tcp -e 1040 -c 2 -a 0 -i 24 -k AGT