M 0.00000 0 (5.00, 5.00, 0.00), (450.00, 285.00), 30.00
M 0.00000 1 (490.00, 285.00, 0.00), (200.00, 285.00), 30.00
M 0.00000 2 (150.00, 240.00, 0.00), (1.00, 285.00), 30.00
s 1.000000000 _0_ AGT  --- 0 tcp 40 [0 0 0 0] ------- [0:0 2:0 32 0] [0 0] 0 0
r 1.000000000 _0_ RTR  --- 0 tcp 40 [0 0 0 0] ------- [0:0 2:0 32 0] [0 0] 0 0
s 1.000000000 _0_ RTR  --- 0 AODV 48 [0 0 0 0] ------- [0:255 -1:255 30 0] [0x2 1 1 [2 0] [0 4]] (REQUEST)
s 1.000115000 _0_ MAC  --- 0 AODV 106 [0 ffffffff 0 800] ------- [0:255 -1:255 30 0] [0x2 1 1 [2 0] [0 4]] (REQUEST)
r 1.000963817 _2_ MAC  --- 0 AODV 48 [0 ffffffff 0 800] ------- [0:255 -1:255 30 0] [0x2 1 1 [2 0] [0 4]] (REQUEST)
r 1.000988817 _2_ RTR  --- 0 AODV 48 [0 ffffffff 0 800] ------- [0:255 -1:255 30 0] [0x2 1 1 [2 0] [0 4]] (REQUEST)
s 1.000988817 _2_ RTR  --- 0 AODV 44 [0 0 0 0] ------- [2:255 0:255 30 0] [0x4 1 [2 4] 10.000000] (REPLY)
s 1.001343817 _2_ MAC  --- 0 ARP 86 [0 ffffffff 2 806] ------- [REQUEST 2/2 0/0]
r 1.002032634 _0_ MAC  --- 0 ARP 28 [0 ffffffff 2 806] ------- [REQUEST 2/2 0/0]
s 1.002322634 _0_ MAC  --- 0 RTS 44 [52e 2 0 0] 
r 1.002675451 _2_ MAC  --- 0 RTS 44 [52e 2 0 0] 
s 1.002685451 _2_ MAC  --- 0 CTS 38 [3f4 0 0 0] 
r 1.002990268 _0_ MAC  --- 0 CTS 38 [3f4 0 0 0] 
s 1.003000268 _0_ MAC  --- 0 ARP 86 [13a 2 0 806] ------- [REPLY 0/0 2/2]
r 1.003689085 _2_ MAC  --- 0 ARP 28 [13a 2 0 806] ------- [REPLY 0/0 2/2]
s 1.003699085 _2_ MAC  --- 0 ACK 38 [0 0 0 0] 
r 1.004003902 _0_ MAC  --- 0 ACK 38 [0 0 0 0] 
s 1.004133085 _2_ MAC  --- 0 RTS 44 [5ae 0 2 0] 
r 1.004485902 _0_ MAC  --- 0 RTS 44 [5ae 0 2 0] 
s 1.004495902 _0_ MAC  --- 0 CTS 38 [474 2 0 0] 
r 1.004800719 _2_ MAC  --- 0 CTS 38 [474 2 0 0] 
s 1.004810719 _2_ MAC  --- 0 AODV 102 [13a 0 2 800] ------- [2:255 0:255 30 0] [0x4 1 [2 4] 10.000000] (REPLY)
r 1.005627536 _0_ MAC  --- 0 AODV 44 [13a 0 2 800] ------- [2:255 0:255 30 0] [0x4 1 [2 4] 10.000000] (REPLY)
s 1.005637536 _0_ MAC  --- 0 ACK 38 [0 2 0 0] 
r 1.005652536 _0_ RTR  --- 0 AODV 44 [13a 0 2 800] ------- [2:255 0:255 30 0] [0x4 1 [2 4] 10.000000] (REPLY)
s 1.005652536 _0_ RTR  --- 0 tcp 40 [0 0 0 0] ------- [0:0 2:0 30 2] [0 0] 0 0
r 1.005942352 _2_ MAC  --- 0 ACK 38 [0 2 0 0] 
s 1.006151536 _0_ MAC  --- 0 RTS 44 [58e 2 0 0] 
r 1.006504352 _2_ MAC  --- 0 RTS 44 [58e 2 0 0] 
s 1.006514352 _2_ MAC  --- 0 CTS 38 [454 0 0 0] 
r 1.006819169 _0_ MAC  --- 0 CTS 38 [454 0 0 0] 
s 1.006829169 _0_ MAC  --- 0 tcp 98 [13a 2 0 800] ------- [0:0 2:0 30 2] [0 0] 0 0
r 1.007613986 _2_ MAC  --- 0 tcp 40 [13a 2 0 800] ------- [0:0 2:0 30 2] [0 0] 1 0
s 1.007623986 _2_ MAC  --- 0 ACK 38 [0 0 0 0] 
r 1.007638986 _2_ AGT  --- 0 tcp 40 [13a 2 0 800] ------- [0:0 2:0 30 2] [0 0] 1 0
s 1.007638986 _2_ AGT  --- 1 ack 40 [0 0 0 0] ------- [2:0 0:0 32 0] [0 0] 0 0
r 1.007638986 _2_ RTR  --- 1 ack 40 [0 0 0 0] ------- [2:0 0:0 32 0] [0 0] 0 0
s 1.007638986 _2_ RTR  --- 1 ack 40 [0 0 0 0] ------- [2:0 0:0 30 0] [0 0] 0 0
r 1.007928802 _0_ MAC  --- 0 ACK 38 [0 0 0 0] 
s 1.008037986 _2_ MAC  --- 0 RTS 44 [58e 0 2 0] 
r 1.008390802 _0_ MAC  --- 0 RTS 44 [58e 0 2 0] 
s 1.008400802 _0_ MAC  --- 0 CTS 38 [454 2 0 0] 
r 1.008705619 _2_ MAC  --- 0 CTS 38 [454 2 0 0] 
s 1.008715619 _2_ MAC  --- 1 ack 98 [13a 0 2 800] ------- [2:0 0:0 30 0] [0 0] 0 0
r 1.009500435 _0_ MAC  --- 1 ack 40 [13a 0 2 800] ------- [2:0 0:0 30 0] [0 0] 1 0
s 1.009510435 _0_ MAC  --- 0 ACK 38 [0 2 0 0] 
r 1.009525435 _0_ AGT  --- 1 ack 40 [13a 0 2 800] ------- [2:0 0:0 30 0] [0 0] 1 0
s 1.009525435 _0_ AGT  --- 2 tcp 1040 [0 0 0 0] ------- [0:0 2:0 32 0] [1 0] 0 0
r 1.009525435 _0_ RTR  --- 2 tcp 1040 [0 0 0 0] ------- [0:0 2:0 32 0] [1 0] 0 0
s 1.009525435 _0_ AGT  --- 3 tcp 1040 [0 0 0 0] ------- [0:0 2:0 32 0] [2 0] 0 0
r 1.009525435 _0_ RTR  --- 3 tcp 1040 [0 0 0 0] ------- [0:0 2:0 32 0] [2 0] 0 0
s 1.009525435 _0_ RTR  --- 2 tcp 1040 [0 0 0 0] ------- [0:0 2:0 30 2] [1 0] 0 0
s 1.009525435 _0_ RTR  --- 3 tcp 1040 [0 0 0 0] ------- [0:0 2:0 30 2] [2 0] 0 0
r 1.009815251 _2_ MAC  --- 0 ACK 38 [0 2 0 0] 
s 1.010064435 _0_ MAC  --- 0 RTS 44 [24ce 2 0 0] 
r 1.010417251 _2_ MAC  --- 0 RTS 44 [24ce 2 0 0] 
s 1.010427251 _2_ MAC  --- 0 CTS 38 [2394 0 0 0] 
r 1.010732068 _0_ MAC  --- 0 CTS 38 [2394 0 0 0] 
s 1.010742068 _0_ MAC  --- 2 tcp 1098 [13a 2 0 800] ------- [0:0 2:0 30 2] [1 0] 0 0
r 1.019526884 _2_ MAC  --- 2 tcp 1040 [13a 2 0 800] ------- [0:0 2:0 30 2] [1 0] 1 0
s 1.019536884 _2_ MAC  --- 0 ACK 38 [0 0 0 0] 
r 1.019551884 _2_ AGT  --- 2 tcp 1040 [13a 2 0 800] ------- [0:0 2:0 30 2] [1 0] 1 0
s 1.019551884 _2_ AGT  --- 4 ack 40 [0 0 0 0] ------- [2:0 0:0 32 0] [1 0] 0 0
r 1.019551884 _2_ RTR  --- 4 ack 40 [0 0 0 0] ------- [2:0 0:0 32 0] [1 0] 0 0
s 1.019551884 _2_ RTR  --- 4 ack 40 [0 0 0 0] ------- [2:0 0:0 30 0] [1 0] 0 0
r 1.019841699 _0_ MAC  --- 0 ACK 38 [0 0 0 0] 
s 1.020070884 _2_ MAC  --- 0 RTS 44 [58e 0 2 0] 
r 1.020423699 _0_ MAC  --- 0 RTS 44 [58e 0 2 0] 
s 1.020433699 _0_ MAC  --- 0 CTS 38 [454 2 0 0] 
r 1.020738515 _2_ MAC  --- 0 CTS 38 [454 2 0 0] 
s 1.020748515 _2_ MAC  --- 4 ack 98 [13a 0 2 800] ------- [2:0 0:0 30 0] [1 0] 0 0
r 1.021533330 _0_ MAC  --- 4 ack 40 [13a 0 2 800] ------- [2:0 0:0 30 0] [1 0] 1 0
s 1.021543330 _0_ MAC  --- 0 ACK 38 [0 2 0 0] 
r 1.021558330 _0_ AGT  --- 4 ack 40 [13a 0 2 800] ------- [2:0 0:0 30 0] [1 0] 1 0
s 1.021558330 _0_ AGT  --- 5 tcp 1040 [0 0 0 0] ------- [0:0 2:0 32 0] [3 0] 0 0
r 1.021558330 _0_ RTR  --- 5 tcp 1040 [0 0 0 0] ------- [0:0 2:0 32 0] [3 0] 0 0
s 1.021558330 _0_ AGT  --- 6 tcp 1040 [0 0 0 0] ------- [0:0 2:0 32 0] [4 0] 0 0
r 1.021558330 _0_ RTR  --- 6 tcp 1040 [0 0 0 0] ------- [0:0 2:0 32 0] [4 0] 0 0
s 1.021558330 _0_ RTR  --- 5 tcp 1040 [0 0 0 0] ------- [0:0 2:0 30 2] [3 0] 0 0
s 1.021558330 _0_ RTR  --- 6 tcp 1040 [0 0 0 0] ------- [0:0 2:0 30 2] [4 0] 0 0
r 1.021848145 _2_ MAC  --- 0 ACK 38 [0 2 0 0] 
s 1.021997330 _0_ MAC  --- 0 RTS 44 [24ce 2 0 0] 
r 1.022350145 _2_ MAC  --- 0 RTS 44 [24ce 2 0 0] 
s 1.022360145 _2_ MAC  --- 0 CTS 38 [2394 0 0 0] 
r 1.022664961 _0_ MAC  --- 0 CTS 38 [2394 0 0 0] 
s 1.022674961 _0_ MAC  --- 3 tcp 1098 [13a 2 0 800] ------- [0:0 2:0 30 2] [2 0] 0 0
r 1.031459776 _2_ MAC  --- 3 tcp 1040 [13a 2 0 800] ------- [0:0 2:0 30 2] [2 0] 1 0
s 1.031469776 _2_ MAC  --- 0 ACK 38 [0 0 0 0] 
r 1.031484776 _2_ AGT  --- 3 tcp 1040 [13a 2 0 800] ------- [0:0 2:0 30 2] [2 0] 1 0
s 1.031484776 _2_ AGT  --- 7 ack 40 [0 0 0 0] ------- [2:0 0:0 32 0] [2 0] 0 0
r 1.031484776 _2_ RTR  --- 7 ack 40 [0 0 0 0] ------- [2:0 0:0 32 0] [2 0] 0 0
s 1.031484776 _2_ RTR  --- 7 ack 40 [0 0 0 0] ------- [2:0 0:0 30 0] [2 0] 0 0
r 1.031774590 _0_ MAC  --- 0 ACK 38 [0 0 0 0] 
s 1.031864590 _0_ MAC  --- 0 RTS 44 [24ce 2 0 0] 
r 1.032217405 _2_ MAC  --- 0 RTS 44 [24ce 2 0 0] 
s 1.032227405 _2_ MAC  --- 0 CTS 38 [2394 0 0 0] 
r 1.032532219 _0_ MAC  --- 0 CTS 38 [2394 0 0 0] 
s 1.032542219 _0_ MAC  --- 5 tcp 1098 [13a 2 0 800] ------- [0:0 2:0 30 2] [3 0] 0 0
r 1.041327033 _2_ MAC  --- 5 tcp 1040 [13a 2 0 800] ------- [0:0 2:0 30 2] [3 0] 1 0
s 1.041337033 _2_ MAC  --- 0 ACK 38 [0 0 0 0] 
r 1.041352033 _2_ AGT  --- 5 tcp 1040 [13a 2 0 800] ------- [0:0 2:0 30 2] [3 0] 1 0
s 1.041352033 _2_ AGT  --- 8 ack 40 [0 0 0 0] ------- [2:0 0:0 32 0] [3 0] 0 0
r 1.041352033 _2_ RTR  --- 8 ack 40 [0 0 0 0] ------- [2:0 0:0 32 0] [3 0] 0 0
s 1.041352033 _2_ RTR  --- 8 ack 40 [0 0 0 0] ------- [2:0 0:0 30 0] [3 0] 0 0
r 1.041641847 _0_ MAC  --- 0 ACK 38 [0 0 0 0] 
s 1.041811033 _2_ MAC  --- 0 RTS 44 [58e 0 2 0] 
r 1.042163847 _0_ MAC  --- 0 RTS 44 [58e 0 2 0] 
s 1.042173847 _0_ MAC  --- 0 CTS 38 [454 2 0 0] 
r 1.042478660 _2_ MAC  --- 0 CTS 38 [454 2 0 0] 
s 1.042488660 _2_ MAC  --- 7 ack 98 [13a 0 2 800] ------- [2:0 0:0 30 0] [2 0] 0 0
r 1.043273474 _0_ MAC  --- 7 ack 40 [13a 0 2 800] ------- [2:0 0:0 30 0] [2 0] 1 0
s 1.043283474 _0_ MAC  --- 0 ACK 38 [0 2 0 0] 
r 1.043298474 _0_ AGT  --- 7 ack 40 [13a 0 2 800] ------- [2:0 0:0 30 0] [2 0] 1 0
s 1.043298474 _0_ AGT  --- 9 tcp 1040 [0 0 0 0] ------- [0:0 2:0 32 0] [5 0] 0 0
r 1.043298474 _0_ RTR  --- 9 tcp 1040 [0 0 0 0] ------- [0:0 2:0 32 0] [5 0] 0 0
s 1.043298474 _0_ AGT  --- 10 tcp 1040 [0 0 0 0] ------- [0:0 2:0 32 0] [6 0] 0 0
r 1.043298474 _0_ RTR  --- 10 tcp 1040 [0 0 0 0] ------- [0:0 2:0 32 0] [6 0] 0 0
s 1.043298474 _0_ RTR  --- 9 tcp 1040 [0 0 0 0] ------- [0:0 2:0 30 2] [5 0] 0 0
s 1.043298474 _0_ RTR  --- 10 tcp 1040 [0 0 0 0] ------- [0:0 2:0 30 2] [6 0] 0 0
r 1.043588287 _2_ MAC  --- 0 ACK 38 [0 2 0 0] 
s 1.043798287 _2_ MAC  --- 0 RTS 44 [58e 0 2 0] 
r 1.044151100 _0_ MAC  --- 0 RTS 44 [58e 0 2 0] 
s 1.044161100 _0_ MAC  --- 0 CTS 38 [454 2 0 0] 
r 1.044465914 _2_ MAC  --- 0 CTS 38 [454 2 0 0] 
s 1.044475914 _2_ MAC  --- 8 ack 98 [13a 0 2 800] ------- [2:0 0:0 30 0] [3 0] 0 0
r 1.045260727 _0_ MAC  --- 8 ack 40 [13a 0 2 800] ------- [2:0 0:0 30 0] [3 0] 1 0
s 1.045270727 _0_ MAC  --- 0 ACK 38 [0 2 0 0] 
r 1.045285727 _0_ AGT  --- 8 ack 40 [13a 0 2 800] ------- [2:0 0:0 30 0] [3 0] 1 0
s 1.045285727 _0_ AGT  --- 11 tcp 1040 [0 0 0 0] ------- [0:0 2:0 32 0] [7 0] 0 0
r 1.045285727 _0_ RTR  --- 11 tcp 1040 [0 0 0 0] ------- [0:0 2:0 32 0] [7 0] 0 0
s 1.045285727 _0_ AGT  --- 12 tcp 1040 [0 0 0 0] ------- [0:0 2:0 32 0] [8 0] 0 0
r 1.045285727 _0_ RTR  --- 12 tcp 1040 [0 0 0 0] ------- [0:0 2:0 32 0] [8 0] 0 0
s 1.045285727 _0_ RTR  --- 11 tcp 1040 [0 0 0 0] ------- [0:0 2:0 30 2] [7 0] 0 0
s 1.045285727 _0_ RTR  --- 12 tcp 1040 [0 0 0 0] ------- [0:0 2:0 30 2] [8 0] 0 0
r 1.045575540 _2_ MAC  --- 0 ACK 38 [0 2 0 0] 
s 1.045904727 _0_ MAC  --- 0 RTS 44 [24ce 2 0 0] 
r 1.046257540 _2_ MAC  --- 0 RTS 44 [24ce 2 0 0] 
s 1.046267540 _2_ MAC  --- 0 CTS 38 [2394 0 0 0] 
r 1.046572353 _0_ MAC  --- 0 CTS 38 [2394 0 0 0] 
s 1.046582353 _0_ MAC  --- 6 tcp 1098 [13a 2 0 800] ------- [0:0 2:0 30 2] [4 0] 0 0
r 1.055367166 _2_ MAC  --- 6 tcp 1040 [13a 2 0 800] ------- [0:0 2:0 30 2] [4 0] 1 0
s 1.055377166 _2_ MAC  --- 0 ACK 38 [0 0 0 0] 
r 1.055392166 _2_ AGT  --- 6 tcp 1040 [13a 2 0 800] ------- [0:0 2:0 30 2] [4 0] 1 0
s 1.055392166 _2_ AGT  --- 13 ack 40 [0 0 0 0] ------- [2:0 0:0 32 0] [4 0] 0 0
r 1.055392166 _2_ RTR  --- 13 ack 40 [0 0 0 0] ------- [2:0 0:0 32 0] [4 0] 0 0
s 1.055392166 _2_ RTR  --- 13 ack 40 [0 0 0 0] ------- [2:0 0:0 30 0] [4 0] 0 0
r 1.055681979 _0_ MAC  --- 0 ACK 38 [0 0 0 0] 
s 1.055831166 _2_ MAC  --- 0 RTS 44 [58e 0 2 0] 
r 1.056183979 _0_ MAC  --- 0 RTS 44 [58e 0 2 0] 
s 1.056193979 _0_ MAC  --- 0 CTS 38 [454 2 0 0] 
r 1.056498791 _2_ MAC  --- 0 CTS 38 [454 2 0 0] 
s 1.056508791 _2_ MAC  --- 13 ack 98 [13a 0 2 800] ------- [2:0 0:0 30 0] [4 0] 0 0
r 1.057293603 _0_ MAC  --- 13 ack 40 [13a 0 2 800] ------- [2:0 0:0 30 0] [4 0] 1 0
s 1.057303603 _0_ MAC  --- 0 ACK 38 [0 2 0 0] 
r 1.057318603 _0_ AGT  --- 13 ack 40 [13a 0 2 800] ------- [2:0 0:0 30 0] [4 0] 1 0
s 1.057318603 _0_ AGT  --- 14 tcp 1040 [0 0 0 0] ------- [0:0 2:0 32 0] [9 0] 0 0
r 1.057318603 _0_ RTR  --- 14 tcp 1040 [0 0 0 0] ------- [0:0 2:0 32 0] [9 0] 0 0
s 1.057318603 _0_ AGT  --- 15 tcp 1040 [0 0 0 0] ------- [0:0 2:0 32 0] [10 0] 0 0
r 1.057318603 _0_ RTR  --- 15 tcp 1040 [0 0 0 0] ------- [0:0 2:0 32 0] [10 0] 0 0
s 1.057318603 _0_ RTR  --- 14 tcp 1040 [0 0 0 0] ------- [0:0 2:0 30 2] [9 0] 0 0
s 1.057318603 _0_ RTR  --- 15 tcp 1040 [0 0 0 0] ------- [0:0 2:0 30 2] [10 0] 0 0
r 1.057608415 _2_ MAC  --- 0 ACK 38 [0 2 0 0] 
s 1.057817603 _0_ MAC  --- 0 RTS 44 [24ce 2 0 0] 
r 1.058170415 _2_ MAC  --- 0 RTS 44 [24ce 2 0 0] 
s 1.058180415 _2_ MAC  --- 0 CTS 38 [2394 0 0 0] 
r 1.058485227 _0_ MAC  --- 0 CTS 38 [2394 0 0 0] 
s 1.058495227 _0_ MAC  --- 9 tcp 1098 [13a 2 0 800] ------- [0:0 2:0 30 2] [5 0] 0 0
r 1.067280039 _2_ MAC  --- 9 tcp 1040 [13a 2 0 800] ------- [0:0 2:0 30 2] [5 0] 1 0
s 1.067290039 _2_ MAC  --- 0 ACK 38 [0 0 0 0] 
r 1.067305039 _2_ AGT  --- 9 tcp 1040 [13a 2 0 800] ------- [0:0 2:0 30 2] [5 0] 1 0
s 1.067305039 _2_ AGT  --- 16 ack 40 [0 0 0 0] ------- [2:0 0:0 32 0] [5 0] 0 0
r 1.067305039 _2_ RTR  --- 16 ack 40 [0 0 0 0] ------- [2:0 0:0 32 0] [5 0] 0 0
s 1.067305039 _2_ RTR  --- 16 ack 40 [0 0 0 0] ------- [2:0 0:0 30 0] [5 0] 0 0
r 1.067594851 _0_ MAC  --- 0 ACK 38 [0 0 0 0] 
s 1.067664039 _2_ MAC  --- 0 RTS 44 [58e 0 2 0] 
r 1.068016851 _0_ MAC  --- 0 RTS 44 [58e 0 2 0] 
s 1.068026851 _0_ MAC  --- 0 CTS 38 [454 2 0 0] 
r 1.068331662 _2_ MAC  --- 0 CTS 38 [454 2 0 0] 
s 1.068341662 _2_ MAC  --- 16 ack 98 [13a 0 2 800] ------- [2:0 0:0 30 0] [5 0] 0 0
r 1.069126473 _0_ MAC  --- 16 ack 40 [13a 0 2 800] ------- [2:0 0:0 30 0] [5 0] 1 0
s 1.069136473 _0_ MAC  --- 0 ACK 38 [0 2 0 0] 
r 1.069151473 _0_ AGT  --- 16 ack 40 [13a 0 2 800] ------- [2:0 0:0 30 0] [5 0] 1 0
s 1.069151473 _0_ AGT  --- 17 tcp 1040 [0 0 0 0] ------- [0:0 2:0 32 0] [11 0] 0 0
r 1.069151473 _0_ RTR  --- 17 tcp 1040 [0 0 0 0] ------- [0:0 2:0 32 0] [11 0] 0 0
s 1.069151473 _0_ AGT  --- 18 tcp 1040 [0 0 0 0] ------- [0:0 2:0 32 0] [12 0] 0 0
r 1.069151473 _0_ RTR  --- 18 tcp 1040 [0 0 0 0] ------- [0:0 2:0 32 0] [12 0] 0 0
s 1.069151473 _0_ RTR  --- 17 tcp 1040 [0 0 0 0] ------- [0:0 2:0 30 2] [11 0] 0 0
s 1.069151473 _0_ RTR  --- 18 tcp 1040 [0 0 0 0] ------- [0:0 2:0 30 2] [12 0] 0 0
r 1.069441284 _2_ MAC  --- 0 ACK 38 [0 2 0 0] 
s 1.069970473 _0_ MAC  --- 0 RTS 44 [24ce 2 0 0] 
r 1.070323284 _2_ MAC  --- 0 RTS 44 [24ce 2 0 0] 
s 1.070333284 _2_ MAC  --- 0 CTS 38 [2394 0 0 0] 
r 1.070638095 _0_ MAC  --- 0 CTS 38 [2394 0 0 0] 
s 1.070648095 _0_ MAC  --- 10 tcp 1098 [13a 2 0 800] ------- [0:0 2:0 30 2] [6 0] 0 0
r 1.079432906 _2_ MAC  --- 10 tcp 1040 [13a 2 0 800] ------- [0:0 2:0 30 2] [6 0] 1 0
s 1.079442906 _2_ MAC  --- 0 ACK 38 [0 0 0 0] 
r 1.079457906 _2_ AGT  --- 10 tcp 1040 [13a 2 0 800] ------- [0:0 2:0 30 2] [6 0] 1 0
s 1.079457906 _2_ AGT  --- 19 ack 40 [0 0 0 0] ------- [2:0 0:0 32 0] [6 0] 0 0
r 1.079457906 _2_ RTR  --- 19 ack 40 [0 0 0 0] ------- [2:0 0:0 32 0] [6 0] 0 0
s 1.079457906 _2_ RTR  --- 19 ack 40 [0 0 0 0] ------- [2:0 0:0 30 0] [6 0] 0 0
r 1.079747716 _0_ MAC  --- 0 ACK 38 [0 0 0 0] 
s 1.079997716 _0_ MAC  --- 0 RTS 44 [24ce 2 0 0] 
r 1.080350526 _2_ MAC  --- 0 RTS 44 [24ce 2 0 0] 
s 1.080360526 _2_ MAC  --- 0 CTS 38 [2394 0 0 0] 
r 1.080665336 _0_ MAC  --- 0 CTS 38 [2394 0 0 0] 
s 1.080675336 _0_ MAC  --- 11 tcp 1098 [13a 2 0 800] ------- [0:0 2:0 30 2] [7 0] 0 0
r 1.089460147 _2_ MAC  --- 11 tcp 1040 [13a 2 0 800] ------- [0:0 2:0 30 2] [7 0] 1 0
s 1.089470147 _2_ MAC  --- 0 ACK 38 [0 0 0 0] 
r 1.089485147 _2_ AGT  --- 11 tcp 1040 [13a 2 0 800] ------- [0:0 2:0 30 2] [7 0] 1 0
s 1.089485147 _2_ AGT  --- 20 ack 40 [0 0 0 0] ------- [2:0 0:0 32 0] [7 0] 0 0
r 1.089485147 _2_ RTR  --- 20 ack 40 [0 0 0 0] ------- [2:0 0:0 32 0] [7 0] 0 0
s 1.089485147 _2_ RTR  --- 20 ack 40 [0 0 0 0] ------- [2:0 0:0 30 0] [7 0] 0 0
r 1.089774956 _0_ MAC  --- 0 ACK 38 [0 0 0 0] 
s 1.089944147 _2_ MAC  --- 0 RTS 44 [58e 0 2 0] 
r 1.090296956 _0_ MAC  --- 0 RTS 44 [58e 0 2 0] 
s 1.090306956 _0_ MAC  --- 0 CTS 38 [454 2 0 0] 
r 1.090611765 _2_ MAC  --- 0 CTS 38 [454 2 0 0] 
s 1.090621765 _2_ MAC  --- 19 ack 98 [13a 0 2 800] ------- [2:0 0:0 30 0] [6 0] 0 0
r 1.091406574 _0_ MAC  --- 19 ack 40 [13a 0 2 800] ------- [2:0 0:0 30 0] [6 0] 1 0
s 1.091416574 _0_ MAC  --- 0 ACK 38 [0 2 0 0] 
r 1.091431574 _0_ AGT  --- 19 ack 40 [13a 0 2 800] ------- [2:0 0:0 30 0] [6 0] 1 0
s 1.091431574 _0_ AGT  --- 21 tcp 1040 [0 0 0 0] ------- [0:0 2:0 32 0] [13 0] 0 0
r 1.091431574 _0_ RTR  --- 21 tcp 1040 [0 0 0 0] ------- [0:0 2:0 32 0] [13 0] 0 0
s 1.091431574 _0_ AGT  --- 22 tcp 1040 [0 0 0 0] ------- [0:0 2:0 32 0] [14 0] 0 0
r 1.091431574 _0_ RTR  --- 22 tcp 1040 [0 0 0 0] ------- [0:0 2:0 32 0] [14 0] 0 0
s 1.091431574 _0_ RTR  --- 21 tcp 1040 [0 0 0 0] ------- [0:0 2:0 30 2] [13 0] 0 0
s 1.091431574 _0_ RTR  --- 22 tcp 1040 [0 0 0 0] ------- [0:0 2:0 30 2] [14 0] 0 0
r 1.091721384 _2_ MAC  --- 0 ACK 38 [0 2 0 0] 
s 1.091791384 _2_ MAC  --- 0 RTS 44 [58e 0 2 0] 
r 1.092144193 _0_ MAC  --- 0 RTS 44 [58e 0 2 0] 
s 1.092154193 _0_ MAC  --- 0 CTS 38 [454 2 0 0] 
r 1.092459002 _2_ MAC  --- 0 CTS 38 [454 2 0 0] 
s 1.092469002 _2_ MAC  --- 20 ack 98 [13a 0 2 800] ------- [2:0 0:0 30 0] [7 0] 0 0
r 1.093253811 _0_ MAC  --- 20 ack 40 [13a 0 2 800] ------- [2:0 0:0 30 0] [7 0] 1 0
s 1.093263811 _0_ MAC  --- 0 ACK 38 [0 2 0 0] 
r 1.093278811 _0_ AGT  --- 20 ack 40 [13a 0 2 800] ------- [2:0 0:0 30 0] [7 0] 1 0
s 1.093278811 _0_ AGT  --- 23 tcp 1040 [0 0 0 0] ------- [0:0 2:0 32 0] [15 0] 0 0
r 1.093278811 _0_ RTR  --- 23 tcp 1040 [0 0 0 0] ------- [0:0 2:0 32 0] [15 0] 0 0
s 1.093278811 _0_ AGT  --- 24 tcp 1040 [0 0 0 0] ------- [0:0 2:0 32 0] [16 0] 0 0
r 1.093278811 _0_ RTR  --- 24 tcp 1040 [0 0 0 0] ------- [0:0 2:0 32 0] [16 0] 0 0
s 1.093278811 _0_ RTR  --- 23 tcp 1040 [0 0 0 0] ------- [0:0 2:0 30 2] [15 0] 0 0
s 1.093278811 _0_ RTR  --- 24 tcp 1040 [0 0 0 0] ------- [0:0 2:0 30 2] [16 0] 0 0
r 1.093568620 _2_ MAC  --- 0 ACK 38 [0 2 0 0] 
s 1.093717811 _0_ MAC  --- 0 RTS 44 [24ce 2 0 0] 
r 1.094070620 _2_ MAC  --- 0 RTS 44 [24ce 2 0 0] 
s 1.094080620 _2_ MAC  --- 0 CTS 38 [2394 0 0 0] 
r 1.094385429 _0_ MAC  --- 0 CTS 38 [2394 0 0 0] 
s 1.094395429 _0_ MAC  --- 12 tcp 1098 [13a 2 0 800] ------- [0:0 2:0 30 2] [8 0] 0 0
r 1.103180238 _2_ MAC  --- 12 tcp 1040 [13a 2 0 800] ------- [0:0 2:0 30 2] [8 0] 1 0
s 1.103190238 _2_ MAC  --- 0 ACK 38 [0 0 0 0] 
r 1.103205238 _2_ AGT  --- 12 tcp 1040 [13a 2 0 800] ------- [0:0 2:0 30 2] [8 0] 1 0
s 1.103205238 _2_ AGT  --- 25 ack 40 [0 0 0 0] ------- [2:0 0:0 32 0] [8 0] 0 0
r 1.103205238 _2_ RTR  --- 25 ack 40 [0 0 0 0] ------- [2:0 0:0 32 0] [8 0] 0 0
s 1.103205238 _2_ RTR  --- 25 ack 40 [0 0 0 0] ------- [2:0 0:0 30 0] [8 0] 0 0
r 1.103495046 _0_ MAC  --- 0 ACK 38 [0 0 0 0] 
s 1.103704238 _2_ MAC  --- 0 RTS 44 [58e 0 2 0] 
r 1.104057046 _0_ MAC  --- 0 RTS 44 [58e 0 2 0] 
s 1.104067046 _0_ MAC  --- 0 CTS 38 [454 2 0 0] 
r 1.104371854 _2_ MAC  --- 0 CTS 38 [454 2 0 0] 
s 1.104381854 _2_ MAC  --- 25 ack 98 [13a 0 2 800] ------- [2:0 0:0 30 0] [8 0] 0 0
r 1.105166662 _0_ MAC  --- 25 ack 40 [13a 0 2 800] ------- [2:0 0:0 30 0] [8 0] 1 0
s 1.105176662 _0_ MAC  --- 0 ACK 38 [0 2 0 0] 
r 1.105191662 _0_ AGT  --- 25 ack 40 [13a 0 2 800] ------- [2:0 0:0 30 0] [8 0] 1 0
s 1.105191662 _0_ AGT  --- 26 tcp 1040 [0 0 0 0] ------- [0:0 2:0 32 0] [17 0] 0 0
r 1.105191662 _0_ RTR  --- 26 tcp 1040 [0 0 0 0] ------- [0:0 2:0 32 0] [17 0] 0 0
s 1.105191662 _0_ AGT  --- 27 tcp 1040 [0 0 0 0] ------- [0:0 2:0 32 0] [18 0] 0 0
r 1.105191662 _0_ RTR  --- 27 tcp 1040 [0 0 0 0] ------- [0:0 2:0 32 0] [18 0] 0 0
s 1.105191662 _0_ RTR  --- 26 tcp 1040 [0 0 0 0] ------- [0:0 2:0 30 2] [17 0] 0 0
s 1.105191662 _0_ RTR  --- 27 tcp 1040 [0 0 0 0] ------- [0:0 2:0 30 2] [18 0] 0 0
r 1.105481470 _2_ MAC  --- 0 ACK 38 [0 2 0 0] 
s 1.105830662 _0_ MAC  --- 0 RTS 44 [24ce 2 0 0] 
r 1.106183470 _2_ MAC  --- 0 RTS 44 [24ce 2 0 0] 
s 1.106193470 _2_ MAC  --- 0 CTS 38 [2394 0 0 0] 
r 1.106498278 _0_ MAC  --- 0 CTS 38 [2394 0 0 0] 
s 1.106508278 _0_ MAC  --- 14 tcp 1098 [13a 2 0 800] ------- [0:0 2:0 30 2] [9 0] 0 0
r 1.115293086 _2_ MAC  --- 14 tcp 1040 [13a 2 0 800] ------- [0:0 2:0 30 2] [9 0] 1 0
s 1.115303086 _2_ MAC  --- 0 ACK 38 [0 0 0 0] 
r 1.115318086 _2_ AGT  --- 14 tcp 1040 [13a 2 0 800] ------- [0:0 2:0 30 2] [9 0] 1 0
s 1.115318086 _2_ AGT  --- 28 ack 40 [0 0 0 0] ------- [2:0 0:0 32 0] [9 0] 0 0
r 1.115318086 _2_ RTR  --- 28 ack 40 [0 0 0 0] ------- [2:0 0:0 32 0] [9 0] 0 0
s 1.115318086 _2_ RTR  --- 28 ack 40 [0 0 0 0] ------- [2:0 0:0 30 0] [9 0] 0 0
r 1.115607893 _0_ MAC  --- 0 ACK 38 [0 0 0 0] 
s 1.116057893 _0_ MAC  --- 0 RTS 44 [24ce 2 0 0] 
r 1.116410700 _2_ MAC  --- 0 RTS 44 [24ce 2 0 0] 
s 1.116420700 _2_ MAC  --- 0 CTS 38 [2394 0 0 0] 
r 1.116725507 _0_ MAC  --- 0 CTS 38 [2394 0 0 0] 
s 1.116735507 _0_ MAC  --- 15 tcp 1098 [13a 2 0 800] ------- [0:0 2:0 30 2] [10 0] 0 0
r 1.125520314 _2_ MAC  --- 15 tcp 1040 [13a 2 0 800] ------- [0:0 2:0 30 2] [10 0] 1 0
s 1.125530314 _2_ MAC  --- 0 ACK 38 [0 0 0 0] 
r 1.125545314 _2_ AGT  --- 15 tcp 1040 [13a 2 0 800] ------- [0:0 2:0 30 2] [10 0] 1 0
s 1.125545314 _2_ AGT  --- 29 ack 40 [0 0 0 0] ------- [2:0 0:0 32 0] [10 0] 0 0
r 1.125545314 _2_ RTR  --- 29 ack 40 [0 0 0 0] ------- [2:0 0:0 32 0] [10 0] 0 0
s 1.125545314 _2_ RTR  --- 29 ack 40 [0 0 0 0] ------- [2:0 0:0 30 0] [10 0] 0 0
r 1.125835120 _0_ MAC  --- 0 ACK 38 [0 0 0 0] 
s 1.126064314 _2_ MAC  --- 0 RTS 44 [58e 0 2 0] 
r 1.126417120 _0_ MAC  --- 0 RTS 44 [58e 0 2 0] 
s 1.126427120 _0_ MAC  --- 0 CTS 38 [454 2 0 0] 
r 1.126731926 _2_ MAC  --- 0 CTS 38 [454 2 0 0] 
s 1.126741926 _2_ MAC  --- 28 ack 98 [13a 0 2 800] ------- [2:0 0:0 30 0] [9 0] 0 0
r 1.127526732 _0_ MAC  --- 28 ack 40 [13a 0 2 800] ------- [2:0 0:0 30 0] [9 0] 1 0
s 1.127536732 _0_ MAC  --- 0 ACK 38 [0 2 0 0] 
r 1.127551732 _0_ AGT  --- 28 ack 40 [13a 0 2 800] ------- [2:0 0:0 30 0] [9 0] 1 0
s 1.127551732 _0_ AGT  --- 30 tcp 1040 [0 0 0 0] ------- [0:0 2:0 32 0] [19 0] 0 0
r 1.127551732 _0_ RTR  --- 30 tcp 1040 [0 0 0 0] ------- [0:0 2:0 32 0] [19 0] 0 0
s 1.127551732 _0_ AGT  --- 31 tcp 1040 [0 0 0 0] ------- [0:0 2:0 32 0] [20 0] 0 0
r 1.127551732 _0_ RTR  --- 31 tcp 1040 [0 0 0 0] ------- [0:0 2:0 32 0] [20 0] 0 0
s 1.127551732 _0_ RTR  --- 30 tcp 1040 [0 0 0 0] ------- [0:0 2:0 30 2] [19 0] 0 0
s 1.127551732 _0_ RTR  --- 31 tcp 1040 [0 0 0 0] ------- [0:0 2:0 30 2] [20 0] 0 0
r 1.127841538 _2_ MAC  --- 0 ACK 38 [0 2 0 0] 
s 1.128251538 _2_ MAC  --- 0 RTS 44 [58e 0 2 0] 
r 1.128604344 _0_ MAC  --- 0 RTS 44 [58e 0 2 0] 
s 1.128614344 _0_ MAC  --- 0 CTS 38 [454 2 0 0] 
r 1.128919150 _2_ MAC  --- 0 CTS 38 [454 2 0 0] 
s 1.128929150 _2_ MAC  --- 29 ack 98 [13a 0 2 800] ------- [2:0 0:0 30 0] [10 0] 0 0
r 1.129713956 _0_ MAC  --- 29 ack 40 [13a 0 2 800] ------- [2:0 0:0 30 0] [10 0] 1 0
s 1.129723956 _0_ MAC  --- 0 ACK 38 [0 2 0 0] 
r 1.129738956 _0_ AGT  --- 29 ack 40 [13a 0 2 800] ------- [2:0 0:0 30 0] [10 0] 1 0
s 1.129738956 _0_ AGT  --- 32 tcp 1040 [0 0 0 0] ------- [0:0 2:0 32 0] [21 0] 0 0
r 1.129738956 _0_ RTR  --- 32 tcp 1040 [0 0 0 0] ------- [0:0 2:0 32 0] [21 0] 0 0
s 1.129738956 _0_ AGT  --- 33 tcp 1040 [0 0 0 0] ------- [0:0 2:0 32 0] [22 0] 0 0
r 1.129738956 _0_ RTR  --- 33 tcp 1040 [0 0 0 0] ------- [0:0 2:0 32 0] [22 0] 0 0
s 1.129738956 _0_ RTR  --- 32 tcp 1040 [0 0 0 0] ------- [0:0 2:0 30 2] [21 0] 0 0
s 1.129738956 _0_ RTR  --- 33 tcp 1040 [0 0 0 0] ------- [0:0 2:0 30 2] [22 0] 0 0
r 1.130028762 _2_ MAC  --- 0 ACK 38 [0 2 0 0] 
s 1.130097956 _0_ MAC  --- 0 RTS 44 [24ce 2 0 0] 
r 1.130450762 _2_ MAC  --- 0 RTS 44 [24ce 2 0 0] 
s 1.130460762 _2_ MAC  --- 0 CTS 38 [2394 0 0 0] 
r 1.130765568 _0_ MAC  --- 0 CTS 38 [2394 0 0 0] 
s 1.130775568 _0_ MAC  --- 17 tcp 1098 [13a 2 0 800] ------- [0:0 2:0 30 2] [11 0] 0 0
r 1.139560374 _2_ MAC  --- 17 tcp 1040 [13a 2 0 800] ------- [0:0 2:0 30 2] [11 0] 1 0
s 1.139570374 _2_ MAC  --- 0 ACK 38 [0 0 0 0] 
r 1.139585374 _2_ AGT  --- 17 tcp 1040 [13a 2 0 800] ------- [0:0 2:0 30 2] [11 0] 1 0
s 1.139585374 _2_ AGT  --- 34 ack 40 [0 0 0 0] ------- [2:0 0:0 32 0] [11 0] 0 0
r 1.139585374 _2_ RTR  --- 34 ack 40 [0 0 0 0] ------- [2:0 0:0 32 0] [11 0] 0 0
s 1.139585374 _2_ RTR  --- 34 ack 40 [0 0 0 0] ------- [2:0 0:0 30 0] [11 0] 0 0
r 1.139875179 _0_ MAC  --- 0 ACK 38 [0 0 0 0] 
s 1.139964374 _2_ MAC  --- 0 RTS 44 [58e 0 2 0] 
r 1.140317179 _0_ MAC  --- 0 RTS 44 [58e 0 2 0] 
s 1.140327179 _0_ MAC  --- 0 CTS 38 [454 2 0 0] 
r 1.140631984 _2_ MAC  --- 0 CTS 38 [454 2 0 0] 
s 1.140641984 _2_ MAC  --- 34 ack 98 [13a 0 2 800] ------- [2:0 0:0 30 0] [11 0] 0 0
r 1.141426789 _0_ MAC  --- 34 ack 40 [13a 0 2 800] ------- [2:0 0:0 30 0] [11 0] 1 0
s 1.141436789 _0_ MAC  --- 0 ACK 38 [0 2 0 0] 
r 1.141451789 _0_ AGT  --- 34 ack 40 [13a 0 2 800] ------- [2:0 0:0 30 0] [11 0] 1 0
s 1.141451789 _0_ AGT  --- 35 tcp 1040 [0 0 0 0] ------- [0:0 2:0 32 0] [23 0] 0 0
r 1.141451789 _0_ RTR  --- 35 tcp 1040 [0 0 0 0] ------- [0:0 2:0 32 0] [23 0] 0 0
s 1.141451789 _0_ AGT  --- 36 tcp 1040 [0 0 0 0] ------- [0:0 2:0 32 0] [24 0] 0 0
r 1.141451789 _0_ RTR  --- 36 tcp 1040 [0 0 0 0] ------- [0:0 2:0 32 0] [24 0] 0 0
s 1.141451789 _0_ RTR  --- 35 tcp 1040 [0 0 0 0] ------- [0:0 2:0 30 2] [23 0] 0 0
s 1.141451789 _0_ RTR  --- 36 tcp 1040 [0 0 0 0] ------- [0:0 2:0 30 2] [24 0] 0 0
r 1.141741594 _2_ MAC  --- 0 ACK 38 [0 2 0 0] 
s 1.142070789 _0_ MAC  --- 0 RTS 44 [24ce 2 0 0] 
r 1.142423593 _2_ MAC  --- 0 RTS 44 [24ce 2 0 0] 
s 1.142433593 _2_ MAC  --- 0 CTS 38 [2394 0 0 0] 
r 1.142738398 _0_ MAC  --- 0 CTS 38 [2394 0 0 0] 
s 1.142748398 _0_ MAC  --- 18 tcp 1098 [13a 2 0 800] ------- [0:0 2:0 30 2] [12 0] 0 0
r 1.151533203 _2_ MAC  --- 18 tcp 1040 [13a 2 0 800] ------- [0:0 2:0 30 2] [12 0] 1 0
s 1.151543203 _2_ MAC  --- 0 ACK 38 [0 0 0 0] 
r 1.151558203 _2_ AGT  --- 18 tcp 1040 [13a 2 0 800] ------- [0:0 2:0 30 2] [12 0] 1 0
s 1.151558203 _2_ AGT  --- 37 ack 40 [0 0 0 0] ------- [2:0 0:0 32 0] [12 0] 0 0
r 1.151558203 _2_ RTR  --- 37 ack 40 [0 0 0 0] ------- [2:0 0:0 32 0] [12 0] 0 0
s 1.151558203 _2_ RTR  --- 37 ack 40 [0 0 0 0] ------- [2:0 0:0 30 0] [12 0] 0 0
r 1.151848007 _0_ MAC  --- 0 ACK 38 [0 0 0 0] 
s 1.151997203 _2_ MAC  --- 0 RTS 44 [58e 0 2 0] 
r 1.152350007 _0_ MAC  --- 0 RTS 44 [58e 0 2 0] 
s 1.152360007 _0_ MAC  --- 0 CTS 38 [454 2 0 0] 
r 1.152664811 _2_ MAC  --- 0 CTS 38 [454 2 0 0] 
s 1.152674811 _2_ MAC  --- 37 ack 98 [13a 0 2 800] ------- [2:0 0:0 30 0] [12 0] 0 0
r 1.153459615 _0_ MAC  --- 37 ack 40 [13a 0 2 800] ------- [2:0 0:0 30 0] [12 0] 1 0
s 1.153469615 _0_ MAC  --- 0 ACK 38 [0 2 0 0] 
r 1.153484615 _0_ AGT  --- 37 ack 40 [13a 0 2 800] ------- [2:0 0:0 30 0] [12 0] 1 0
s 1.153484615 _0_ AGT  --- 38 tcp 1040 [0 0 0 0] ------- [0:0 2:0 32 0] [25 0] 0 0
r 1.153484615 _0_ RTR  --- 38 tcp 1040 [0 0 0 0] ------- [0:0 2:0 32 0] [25 0] 0 0
s 1.153484615 _0_ AGT  --- 39 tcp 1040 [0 0 0 0] ------- [0:0 2:0 32 0] [26 0] 0 0
r 1.153484615 _0_ RTR  --- 39 tcp 1040 [0 0 0 0] ------- [0:0 2:0 32 0] [26 0] 0 0
s 1.153484615 _0_ RTR  --- 38 tcp 1040 [0 0 0 0] ------- [0:0 2:0 30 2] [25 0] 0 0
s 1.153484615 _0_ RTR  --- 39 tcp 1040 [0 0 0 0] ------- [0:0 2:0 30 2] [26 0] 0 0
r 1.153774419 _2_ MAC  --- 0 ACK 38 [0 2 0 0] 
s 1.153883615 _0_ MAC  --- 0 RTS 44 [24ce 2 0 0] 
r 1.154236419 _2_ MAC  --- 0 RTS 44 [24ce 2 0 0] 
s 1.154246419 _2_ MAC  --- 0 CTS 38 [2394 0 0 0] 
r 1.154551223 _0_ MAC  --- 0 CTS 38 [2394 0 0 0] 
s 1.154561223 _0_ MAC  --- 21 tcp 1098 [13a 2 0 800] ------- [0:0 2:0 30 2] [13 0] 0 0
r 1.163346026 _2_ MAC  --- 21 tcp 1040 [13a 2 0 800] ------- [0:0 2:0 30 2] [13 0] 1 0
s 1.163356026 _2_ MAC  --- 0 ACK 38 [0 0 0 0] 
r 1.163371026 _2_ AGT  --- 21 tcp 1040 [13a 2 0 800] ------- [0:0 2:0 30 2] [13 0] 1 0
s 1.163371026 _2_ AGT  --- 40 ack 40 [0 0 0 0] ------- [2:0 0:0 32 0] [13 0] 0 0
r 1.163371026 _2_ RTR  --- 40 ack 40 [0 0 0 0] ------- [2:0 0:0 32 0] [13 0] 0 0
s 1.163371026 _2_ RTR  --- 40 ack 40 [0 0 0 0] ------- [2:0 0:0 30 0] [13 0] 0 0
r 1.163660829 _0_ MAC  --- 0 ACK 38 [0 0 0 0] 
s 1.163750026 _2_ MAC  --- 0 RTS 44 [58e 0 2 0] 
r 1.164102829 _0_ MAC  --- 0 RTS 44 [58e 0 2 0] 
s 1.164112829 _0_ MAC  --- 0 CTS 38 [454 2 0 0] 
r 1.164417632 _2_ MAC  --- 0 CTS 38 [454 2 0 0] 
s 1.164427632 _2_ MAC  --- 40 ack 98 [13a 0 2 800] ------- [2:0 0:0 30 0] [13 0] 0 0
r 1.165212435 _0_ MAC  --- 40 ack 40 [13a 0 2 800] ------- [2:0 0:0 30 0] [13 0] 1 0
s 1.165222435 _0_ MAC  --- 0 ACK 38 [0 2 0 0] 
r 1.165237435 _0_ AGT  --- 40 ack 40 [13a 0 2 800] ------- [2:0 0:0 30 0] [13 0] 1 0
s 1.165237435 _0_ AGT  --- 41 tcp 1040 [0 0 0 0] ------- [0:0 2:0 32 0] [27 0] 0 0
r 1.165237435 _0_ RTR  --- 41 tcp 1040 [0 0 0 0] ------- [0:0 2:0 32 0] [27 0] 0 0
s 1.165237435 _0_ AGT  --- 42 tcp 1040 [0 0 0 0] ------- [0:0 2:0 32 0] [28 0] 0 0
r 1.165237435 _0_ RTR  --- 42 tcp 1040 [0 0 0 0] ------- [0:0 2:0 32 0] [28 0] 0 0
s 1.165237435 _0_ RTR  --- 41 tcp 1040 [0 0 0 0] ------- [0:0 2:0 30 2] [27 0] 0 0
s 1.165237435 _0_ RTR  --- 42 tcp 1040 [0 0 0 0] ------- [0:0 2:0 30 2] [28 0] 0 0
r 1.165527238 _2_ MAC  --- 0 ACK 38 [0 2 0 0] 
s 1.165836435 _0_ MAC  --- 0 RTS 44 [24ce 2 0 0] 
r 1.166189238 _2_ MAC  --- 0 RTS 44 [24ce 2 0 0] 
s 1.166199238 _2_ MAC  --- 0 CTS 38 [2394 0 0 0] 
r 1.166504041 _0_ MAC  --- 0 CTS 38 [2394 0 0 0] 
s 1.166514041 _0_ MAC  --- 22 tcp 1098 [13a 2 0 800] ------- [0:0 2:0 30 2] [14 0] 0 0
r 1.175298844 _2_ MAC  --- 22 tcp 1040 [13a 2 0 800] ------- [0:0 2:0 30 2] [14 0] 1 0
s 1.175308844 _2_ MAC  --- 0 ACK 38 [0 0 0 0] 
r 1.175323844 _2_ AGT  --- 22 tcp 1040 [13a 2 0 800] ------- [0:0 2:0 30 2] [14 0] 1 0
s 1.175323844 _2_ AGT  --- 43 ack 40 [0 0 0 0] ------- [2:0 0:0 32 0] [14 0] 0 0
r 1.175323844 _2_ RTR  --- 43 ack 40 [0 0 0 0] ------- [2:0 0:0 32 0] [14 0] 0 0
s 1.175323844 _2_ RTR  --- 43 ack 40 [0 0 0 0] ------- [2:0 0:0 30 0] [14 0] 0 0
r 1.175613646 _0_ MAC  --- 0 ACK 38 [0 0 0 0] 
s 1.175762844 _2_ MAC  --- 0 RTS 44 [58e 0 2 0] 
r 1.176115645 _0_ MAC  --- 0 RTS 44 [58e 0 2 0] 
s 1.176125645 _0_ MAC  --- 0 CTS 38 [454 2 0 0] 
r 1.176430447 _2_ MAC  --- 0 CTS 38 [454 2 0 0] 
s 1.176440447 _2_ MAC  --- 43 ack 98 [13a 0 2 800] ------- [2:0 0:0 30 0] [14 0] 0 0
r 1.177225249 _0_ MAC  --- 43 ack 40 [13a 0 2 800] ------- [2:0 0:0 30 0] [14 0] 1 0
s 1.177235249 _0_ MAC  --- 0 ACK 38 [0 2 0 0] 
r 1.177250249 _0_ AGT  --- 43 ack 40 [13a 0 2 800] ------- [2:0 0:0 30 0] [14 0] 1 0
s 1.177250249 _0_ AGT  --- 44 tcp 1040 [0 0 0 0] ------- [0:0 2:0 32 0] [29 0] 0 0
r 1.177250249 _0_ RTR  --- 44 tcp 1040 [0 0 0 0] ------- [0:0 2:0 32 0] [29 0] 0 0
s 1.177250249 _0_ AGT  --- 45 tcp 1040 [0 0 0 0] ------- [0:0 2:0 32 0] [30 0] 0 0
r 1.177250249 _0_ RTR  --- 45 tcp 1040 [0 0 0 0] ------- [0:0 2:0 32 0] [30 0] 0 0
s 1.177250249 _0_ RTR  --- 44 tcp 1040 [0 0 0 0] ------- [0:0 2:0 30 2] [29 0] 0 0
s 1.177250249 _0_ RTR  --- 45 tcp 1040 [0 0 0 0] ------- [0:0 2:0 30 2] [30 0] 0 0
r 1.177540051 _2_ MAC  --- 0 ACK 38 [0 2 0 0] 
s 1.178029249 _0_ MAC  --- 0 RTS 44 [24ce 2 0 0] 
r 1.178382051 _2_ MAC  --- 0 RTS 44 [24ce 2 0 0] 
s 1.178392051 _2_ MAC  --- 0 CTS 38 [2394 0 0 0] 
r 1.178696853 _0_ MAC  --- 0 CTS 38 [2394 0 0 0] 
s 1.178706853 _0_ MAC  --- 23 tcp 1098 [13a 2 0 800] ------- [0:0 2:0 30 2] [15 0] 0 0
r 1.187491655 _2_ MAC  --- 23 tcp 1040 [13a 2 0 800] ------- [0:0 2:0 30 2] [15 0] 1 0