M 1.00000 0 (0.00, 0.00, 0.00), (10.00, 10.00), 50.00
M 1.00000 1 (0.00, 0.00, 0.00), (10.00, 100.00), 50.00
M 1.00000 4 (0.00, 0.00, 0.00), (50.00, 50.00), 50.00
M 1.00000 2 (0.00, 0.00, 0.00), (100.00, 100.00), 50.00
M 1.00000 3 (0.00, 0.00, 0.00), (100.00, 10.00), 50.00
s 5.000000000 _1_ AGT  --- 0 tcp 40 [0 0 0 0] ------- [1:0 2:0 32 0] [0 0] 0 0
r 5.000000000 _1_ RTR  --- 0 tcp 40 [0 0 0 0] ------- [1:0 2:0 32 0] [0 0] 0 0
s 5.000000000 _1_ RTR  --- 0 AODV 48 [0 0 0 0] ------- [1:255 -1:255 30 0] [0x2 1 1 [2 0] [1 4]] (REQUEST)
s 5.000635000 _1_ MAC  --- 0 AODV 106 [0 ffffffff 1 800] ------- [1:255 -1:255 30 0] [0x2 1 1 [2 0] [1 4]] (REQUEST)
r 5.001483213 _4_ MAC  --- 0 AODV 48 [0 ffffffff 1 800] ------- [1:255 -1:255 30 0] [0x2 1 1 [2 0] [1 4]] (REQUEST)
r 5.001483300 _0_ MAC  --- 0 AODV 48 [0 ffffffff 1 800] ------- [1:255 -1:255 30 0] [0x2 1 1 [2 0] [1 4]] (REQUEST)
r 5.001483300 _2_ MAC  --- 0 AODV 48 [0 ffffffff 1 800] ------- [1:255 -1:255 30 0] [0x2 1 1 [2 0] [1 4]] (REQUEST)
r 5.001483424 _3_ MAC  --- 0 AODV 48 [0 ffffffff 1 800] ------- [1:255 -1:255 30 0] [0x2 1 1 [2 0] [1 4]] (REQUEST)
r 5.001508213 _4_ RTR  --- 0 AODV 48 [0 ffffffff 1 800] ------- [1:255 -1:255 30 0] [0x2 1 1 [2 0] [1 4]] (REQUEST)
r 5.001508300 _0_ RTR  --- 0 AODV 48 [0 ffffffff 1 800] ------- [1:255 -1:255 30 0] [0x2 1 1 [2 0] [1 4]] (REQUEST)
r 5.001508300 _2_ RTR  --- 0 AODV 48 [0 ffffffff 1 800] ------- [1:255 -1:255 30 0] [0x2 1 1 [2 0] [1 4]] (REQUEST)
s 5.001508300 _2_ RTR  --- 0 AODV 44 [0 0 0 0] ------- [2:255 1:255 30 1] [0x4 1 [2 4] 10.000000] (REPLY)
r 5.001508424 _3_ RTR  --- 0 AODV 48 [0 ffffffff 1 800] ------- [1:255 -1:255 30 0] [0x2 1 1 [2 0] [1 4]] (REQUEST)
s 5.001763300 _2_ MAC  --- 0 ARP 86 [0 ffffffff 2 806] ------- [REQUEST 2/2 0/1]
r 5.002451536 _4_ MAC  --- 0 ARP 28 [0 ffffffff 2 806] ------- [REQUEST 2/2 0/1]
r 5.002451600 _3_ MAC  --- 0 ARP 28 [0 ffffffff 2 806] ------- [REQUEST 2/2 0/1]
r 5.002451600 _1_ MAC  --- 0 ARP 28 [0 ffffffff 2 806] ------- [REQUEST 2/2 0/1]
r 5.002451724 _0_ MAC  --- 0 ARP 28 [0 ffffffff 2 806] ------- [REQUEST 2/2 0/1]
s 5.002581600 _1_ MAC  --- 0 RTS 44 [52e 2 1 0] 
r 5.002933900 _2_ MAC  --- 0 RTS 44 [52e 2 1 0] 
s 5.002943900 _2_ MAC  --- 0 CTS 38 [3f4 1 0 0] 
r 5.003248200 _1_ MAC  --- 0 CTS 38 [3f4 1 0 0] 
s 5.003258200 _1_ MAC  --- 0 ARP 86 [13a 2 1 806] ------- [REPLY 1/1 2/2]
r 5.003946500 _2_ MAC  --- 0 ARP 28 [13a 2 1 806] ------- [REPLY 1/1 2/2]
s 5.003956500 _2_ MAC  --- 0 ACK 38 [0 1 0 0] 
r 5.004260800 _1_ MAC  --- 0 ACK 38 [0 1 0 0] 
s 5.004470500 _2_ MAC  --- 0 RTS 44 [5ae 1 2 0] 
s 5.004638042 _3_ RTR  --- 0 AODV 48 [0 ffffffff 1 800] ------- [3:255 -1:255 29 0] [0x2 2 1 [2 0] [1 4]] (REQUEST)
r 5.004822800 _1_ MAC  --- 0 RTS 44 [5ae 1 2 0] 
s 5.004832800 _1_ MAC  --- 0 CTS 38 [474 2 0 0] 
r 5.005137100 _2_ MAC  --- 0 CTS 38 [474 2 0 0] 
s 5.005147100 _2_ MAC  --- 0 AODV 102 [13a 1 2 800] ------- [2:255 1:255 30 1] [0x4 1 [2 4] 10.000000] (REPLY)
s 5.005919947 _4_ RTR  --- 0 AODV 48 [0 ffffffff 1 800] ------- [4:255 -1:255 29 0] [0x2 2 1 [2 0] [1 4]] (REQUEST)
r 5.005963400 _1_ MAC  --- 0 AODV 44 [13a 1 2 800] ------- [2:255 1:255 30 1] [0x4 1 [2 4] 10.000000] (REPLY)
s 5.005973400 _1_ MAC  --- 0 ACK 38 [0 2 0 0] 
r 5.005988400 _1_ RTR  --- 0 AODV 44 [13a 1 2 800] ------- [2:255 1:255 30 1] [0x4 1 [2 4] 10.000000] (REPLY)
s 5.005988400 _1_ RTR  --- 0 tcp 40 [0 0 0 0] ------- [1:0 2:0 30 2] [0 0] 0 0
r 5.006277700 _2_ MAC  --- 0 ACK 38 [0 2 0 0] 
s 5.006527400 _1_ MAC  --- 0 RTS 44 [58e 2 1 0] 
r 5.006879700 _2_ MAC  --- 0 RTS 44 [58e 2 1 0] 
s 5.006889700 _2_ MAC  --- 0 CTS 38 [454 1 0 0] 
r 5.007194000 _1_ MAC  --- 0 CTS 38 [454 1 0 0] 
s 5.007204000 _1_ MAC  --- 0 tcp 98 [13a 2 1 800] ------- [1:0 2:0 30 2] [0 0] 0 0
r 5.007988300 _2_ MAC  --- 0 tcp 40 [13a 2 1 800] ------- [1:0 2:0 30 2] [0 0] 1 0
s 5.007998300 _2_ MAC  --- 0 ACK 38 [0 1 0 0] 
r 5.008013300 _2_ AGT  --- 0 tcp 40 [13a 2 1 800] ------- [1:0 2:0 30 2] [0 0] 1 0
s 5.008013300 _2_ AGT  --- 1 ack 40 [0 0 0 0] ------- [2:1 0:0 32 0] [0 0] 0 0
r 5.008013300 _2_ RTR  --- 1 ack 40 [0 0 0 0] ------- [2:1 0:0 32 0] [0 0] 0 0
s 5.008013300 _2_ RTR  --- 0 AODV 48 [0 0 0 0] ------- [2:255 -1:255 30 0] [0x2 1 1 [0 0] [2 6]] (REQUEST)
r 5.008302600 _1_ MAC  --- 0 ACK 38 [0 1 0 0] 
s 5.008392536 _4_ MAC  --- 0 AODV 106 [0 ffffffff 4 800] ------- [4:255 -1:255 29 0] [0x2 2 1 [2 0] [1 4]] (REQUEST)
r 5.009240724 _0_ MAC  --- 0 AODV 48 [0 ffffffff 4 800] ------- [4:255 -1:255 29 0] [0x2 2 1 [2 0] [1 4]] (REQUEST)
r 5.009240749 _1_ MAC  --- 0 AODV 48 [0 ffffffff 4 800] ------- [4:255 -1:255 29 0] [0x2 2 1 [2 0] [1 4]] (REQUEST)
r 5.009240749 _3_ MAC  --- 0 AODV 48 [0 ffffffff 4 800] ------- [4:255 -1:255 29 0] [0x2 2 1 [2 0] [1 4]] (REQUEST)
r 5.009240771 _2_ MAC  --- 0 AODV 48 [0 ffffffff 4 800] ------- [4:255 -1:255 29 0] [0x2 2 1 [2 0] [1 4]] (REQUEST)
r 5.009265724 _0_ RTR  --- 0 AODV 48 [0 ffffffff 4 800] ------- [4:255 -1:255 29 0] [0x2 2 1 [2 0] [1 4]] (REQUEST)
r 5.009265749 _1_ RTR  --- 0 AODV 48 [0 ffffffff 4 800] ------- [4:255 -1:255 29 0] [0x2 2 1 [2 0] [1 4]] (REQUEST)
r 5.009265749 _3_ RTR  --- 0 AODV 48 [0 ffffffff 4 800] ------- [4:255 -1:255 29 0] [0x2 2 1 [2 0] [1 4]] (REQUEST)
r 5.009265771 _2_ RTR  --- 0 AODV 48 [0 ffffffff 4 800] ------- [4:255 -1:255 29 0] [0x2 2 1 [2 0] [1 4]] (REQUEST)
s 5.009310749 _3_ MAC  --- 0 AODV 106 [0 ffffffff 3 800] ------- [3:255 -1:255 29 0] [0x2 2 1 [2 0] [1 4]] (REQUEST)
s 5.009499855 _0_ RTR  --- 0 AODV 48 [0 ffffffff 1 800] ------- [0:255 -1:255 29 0] [0x2 2 1 [2 0] [1 4]] (REQUEST)
r 5.010158963 _4_ MAC  --- 0 AODV 48 [0 ffffffff 3 800] ------- [3:255 -1:255 29 0] [0x2 2 1 [2 0] [1 4]] (REQUEST)
r 5.010159049 _0_ MAC  --- 0 AODV 48 [0 ffffffff 3 800] ------- [3:255 -1:255 29 0] [0x2 2 1 [2 0] [1 4]] (REQUEST)
r 5.010159049 _2_ MAC  --- 0 AODV 48 [0 ffffffff 3 800] ------- [3:255 -1:255 29 0] [0x2 2 1 [2 0] [1 4]] (REQUEST)
r 5.010159173 _1_ MAC  --- 0 AODV 48 [0 ffffffff 3 800] ------- [3:255 -1:255 29 0] [0x2 2 1 [2 0] [1 4]] (REQUEST)
r 5.010183963 _4_ RTR  --- 0 AODV 48 [0 ffffffff 3 800] ------- [3:255 -1:255 29 0] [0x2 2 1 [2 0] [1 4]] (REQUEST)
r 5.010184049 _0_ RTR  --- 0 AODV 48 [0 ffffffff 3 800] ------- [3:255 -1:255 29 0] [0x2 2 1 [2 0] [1 4]] (REQUEST)
r 5.010184049 _2_ RTR  --- 0 AODV 48 [0 ffffffff 3 800] ------- [3:255 -1:255 29 0] [0x2 2 1 [2 0] [1 4]] (REQUEST)
r 5.010184173 _1_ RTR  --- 0 AODV 48 [0 ffffffff 3 800] ------- [3:255 -1:255 29 0] [0x2 2 1 [2 0] [1 4]] (REQUEST)
s 5.010449049 _0_ MAC  --- 0 AODV 106 [0 ffffffff 0 800] ------- [0:255 -1:255 29 0] [0x2 2 1 [2 0] [1 4]] (REQUEST)
r 5.011297238 _4_ MAC  --- 0 AODV 48 [0 ffffffff 0 800] ------- [0:255 -1:255 29 0] [0x2 2 1 [2 0] [1 4]] (REQUEST)
r 5.011297349 _1_ MAC  --- 0 AODV 48 [0 ffffffff 0 800] ------- [0:255 -1:255 29 0] [0x2 2 1 [2 0] [1 4]] (REQUEST)
r 5.011297349 _3_ MAC  --- 0 AODV 48 [0 ffffffff 0 800] ------- [0:255 -1:255 29 0] [0x2 2 1 [2 0] [1 4]] (REQUEST)
r 5.011297473 _2_ MAC  --- 0 AODV 48 [0 ffffffff 0 800] ------- [0:255 -1:255 29 0] [0x2 2 1 [2 0] [1 4]] (REQUEST)
r 5.011322238 _4_ RTR  --- 0 AODV 48 [0 ffffffff 0 800] ------- [0:255 -1:255 29 0] [0x2 2 1 [2 0] [1 4]] (REQUEST)
r 5.011322349 _1_ RTR  --- 0 AODV 48 [0 ffffffff 0 800] ------- [0:255 -1:255 29 0] [0x2 2 1 [2 0] [1 4]] (REQUEST)
r 5.011322349 _3_ RTR  --- 0 AODV 48 [0 ffffffff 0 800] ------- [0:255 -1:255 29 0] [0x2 2 1 [2 0] [1 4]] (REQUEST)
r 5.011322473 _2_ RTR  --- 0 AODV 48 [0 ffffffff 0 800] ------- [0:255 -1:255 29 0] [0x2 2 1 [2 0] [1 4]] (REQUEST)
s 5.011587473 _2_ MAC  --- 0 AODV 106 [0 ffffffff 2 800] ------- [2:255 -1:255 30 0] [0x2 1 1 [0 0] [2 6]] (REQUEST)
r 5.012435709 _4_ MAC  --- 0 AODV 48 [0 ffffffff 2 800] ------- [2:255 -1:255 30 0] [0x2 1 1 [0 0] [2 6]] (REQUEST)
r 5.012435773 _3_ MAC  --- 0 AODV 48 [0 ffffffff 2 800] ------- [2:255 -1:255 30 0] [0x2 1 1 [0 0] [2 6]] (REQUEST)
r 5.012435773 _1_ MAC  --- 0 AODV 48 [0 ffffffff 2 800] ------- [2:255 -1:255 30 0] [0x2 1 1 [0 0] [2 6]] (REQUEST)
r 5.012435898 _0_ MAC  --- 0 AODV 48 [0 ffffffff 2 800] ------- [2:255 -1:255 30 0] [0x2 1 1 [0 0] [2 6]] (REQUEST)
r 5.012460709 _4_ RTR  --- 0 AODV 48 [0 ffffffff 2 800] ------- [2:255 -1:255 30 0] [0x2 1 1 [0 0] [2 6]] (REQUEST)
r 5.012460773 _3_ RTR  --- 0 AODV 48 [0 ffffffff 2 800] ------- [2:255 -1:255 30 0] [0x2 1 1 [0 0] [2 6]] (REQUEST)
r 5.012460773 _1_ RTR  --- 0 AODV 48 [0 ffffffff 2 800] ------- [2:255 -1:255 30 0] [0x2 1 1 [0 0] [2 6]] (REQUEST)
r 5.012460898 _0_ RTR  --- 0 AODV 48 [0 ffffffff 2 800] ------- [2:255 -1:255 30 0] [0x2 1 1 [0 0] [2 6]] (REQUEST)
s 5.012460898 _0_ RTR  --- 0 AODV 44 [0 0 0 0] ------- [0:255 2:255 30 2] [0x4 1 [0 4] 10.000000] (REPLY)
s 5.012725898 _0_ MAC  --- 0 RTS 44 [5ae 2 0 0] 
r 5.013078322 _2_ MAC  --- 0 RTS 44 [5ae 2 0 0] 
s 5.013088322 _2_ MAC  --- 0 CTS 38 [474 0 0 0] 
r 5.013392746 _0_ MAC  --- 0 CTS 38 [474 0 0 0] 
s 5.013402746 _0_ MAC  --- 0 AODV 102 [13a 2 0 800] ------- [0:255 2:255 30 2] [0x4 1 [0 4] 10.000000] (REPLY)
r 5.014219170 _2_ MAC  --- 0 AODV 44 [13a 2 0 800] ------- [0:255 2:255 30 2] [0x4 1 [0 4] 10.000000] (REPLY)
s 5.014229170 _2_ MAC  --- 0 ACK 38 [0 0 0 0] 
r 5.014244170 _2_ RTR  --- 0 AODV 44 [13a 2 0 800] ------- [0:255 2:255 30 2] [0x4 1 [0 4] 10.000000] (REPLY)
s 5.014244170 _2_ RTR  --- 1 ack 40 [0 0 0 0] ------- [2:1 0:0 30 0] [0 0] 0 0
r 5.014533595 _0_ MAC  --- 0 ACK 38 [0 0 0 0] 
s 5.014683170 _2_ MAC  --- 0 ARP 86 [0 ffffffff 2 806] ------- [REQUEST 2/2 0/0]
s 5.015041653 _1_ RTR  --- 0 AODV 48 [0 ffffffff 2 800] ------- [1:255 -1:255 29 0] [0x2 2 1 [0 0] [2 6]] (REQUEST)
r 5.015371406 _4_ MAC  --- 0 ARP 28 [0 ffffffff 2 806] ------- [REQUEST 2/2 0/0]
r 5.015371470 _3_ MAC  --- 0 ARP 28 [0 ffffffff 2 806] ------- [REQUEST 2/2 0/0]
r 5.015371470 _1_ MAC  --- 0 ARP 28 [0 ffffffff 2 806] ------- [REQUEST 2/2 0/0]
r 5.015371595 _0_ MAC  --- 0 ARP 28 [0 ffffffff 2 806] ------- [REQUEST 2/2 0/0]
s 5.015606595 _0_ MAC  --- 0 RTS 44 [52e 2 0 0] 
s 5.015948184 _3_ RTR  --- 0 AODV 48 [0 ffffffff 2 800] ------- [3:255 -1:255 29 0] [0x2 2 1 [0 0] [2 6]] (REQUEST)
r 5.015959019 _2_ MAC  --- 0 RTS 44 [52e 2 0 0] 
s 5.015969019 _2_ MAC  --- 0 CTS 38 [3f4 0 0 0] 
r 5.016273443 _0_ MAC  --- 0 CTS 38 [3f4 0 0 0] 
s 5.016283443 _0_ MAC  --- 0 ARP 86 [13a 2 0 806] ------- [REPLY 0/0 2/2]
r 5.016971868 _2_ MAC  --- 0 ARP 28 [13a 2 0 806] ------- [REPLY 0/0 2/2]
s 5.016981868 _2_ MAC  --- 0 ACK 38 [0 0 0 0] 
r 5.017286292 _0_ MAC  --- 0 ACK 38 [0 0 0 0] 
s 5.017396168 _1_ MAC  --- 0 AODV 106 [0 ffffffff 1 800] ------- [1:255 -1:255 29 0] [0x2 2 1 [0 0] [2 6]] (REQUEST)
r 5.018244381 _4_ MAC  --- 0 AODV 48 [0 ffffffff 1 800] ------- [1:255 -1:255 29 0] [0x2 2 1 [0 0] [2 6]] (REQUEST)
r 5.018244468 _0_ MAC  --- 0 AODV 48 [0 ffffffff 1 800] ------- [1:255 -1:255 29 0] [0x2 2 1 [0 0] [2 6]] (REQUEST)
r 5.018244468 _2_ MAC  --- 0 AODV 48 [0 ffffffff 1 800] ------- [1:255 -1:255 29 0] [0x2 2 1 [0 0] [2 6]] (REQUEST)
r 5.018244592 _3_ MAC  --- 0 AODV 48 [0 ffffffff 1 800] ------- [1:255 -1:255 29 0] [0x2 2 1 [0 0] [2 6]] (REQUEST)
r 5.018269381 _4_ RTR  --- 0 AODV 48 [0 ffffffff 1 800] ------- [1:255 -1:255 29 0] [0x2 2 1 [0 0] [2 6]] (REQUEST)
r 5.018269468 _0_ RTR  --- 0 AODV 48 [0 ffffffff 1 800] ------- [1:255 -1:255 29 0] [0x2 2 1 [0 0] [2 6]] (REQUEST)
r 5.018269468 _2_ RTR  --- 0 AODV 48 [0 ffffffff 1 800] ------- [1:255 -1:255 29 0] [0x2 2 1 [0 0] [2 6]] (REQUEST)
r 5.018269592 _3_ RTR  --- 0 AODV 48 [0 ffffffff 1 800] ------- [1:255 -1:255 29 0] [0x2 2 1 [0 0] [2 6]] (REQUEST)
s 5.018494468 _2_ MAC  --- 0 RTS 44 [58e 0 2 0] 
r 5.018846892 _0_ MAC  --- 0 RTS 44 [58e 0 2 0] 
s 5.018856892 _0_ MAC  --- 0 CTS 38 [454 2 0 0] 
r 5.019161316 _2_ MAC  --- 0 CTS 38 [454 2 0 0] 
s 5.019171316 _2_ MAC  --- 1 ack 98 [13a 0 2 800] ------- [2:1 0:0 30 0] [0 0] 0 0
r 5.019955740 _0_ MAC  --- 1 ack 40 [13a 0 2 800] ------- [2:1 0:0 30 0] [0 0] 1 0
s 5.019965740 _0_ MAC  --- 0 ACK 38 [0 2 0 0] 
r 5.019980740 _0_ AGT  --- 1 ack 40 [13a 0 2 800] ------- [2:1 0:0 30 0] [0 0] 1 0
s 5.019980740 _1_ AGT  --- 2 tcp 1040 [0 0 0 0] ------- [1:0 2:0 32 0] [1 0] 0 0
r 5.019980740 _1_ RTR  --- 2 tcp 1040 [0 0 0 0] ------- [1:0 2:0 32 0] [1 0] 0 0
s 5.019980740 _1_ AGT  --- 3 tcp 1040 [0 0 0 0] ------- [1:0 2:0 32 0] [2 0] 0 0
r 5.019980740 _1_ RTR  --- 3 tcp 1040 [0 0 0 0] ------- [1:0 2:0 32 0] [2 0] 0 0
s 5.019980740 _1_ RTR  --- 2 tcp 1040 [0 0 0 0] ------- [1:0 2:0 30 2] [1 0] 0 0
s 5.019980740 _1_ RTR  --- 3 tcp 1040 [0 0 0 0] ------- [1:0 2:0 30 2] [2 0] 0 0
r 5.020270165 _2_ MAC  --- 0 ACK 38 [0 2 0 0] 
s 5.020530995 _4_ RTR  --- 0 AODV 48 [0 ffffffff 2 800] ------- [4:255 -1:255 29 0] [0x2 2 1 [0 0] [2 6]] (REQUEST)
s 5.020640040 _3_ MAC  --- 0 AODV 106 [0 ffffffff 3 800] ------- [3:255 -1:255 29 0] [0x2 2 1 [0 0] [2 6]] (REQUEST)
r 5.021488254 _4_ MAC  --- 0 AODV 48 [0 ffffffff 3 800] ------- [3:255 -1:255 29 0] [0x2 2 1 [0 0] [2 6]] (REQUEST)
r 5.021488340 _0_ MAC  --- 0 AODV 48 [0 ffffffff 3 800] ------- [3:255 -1:255 29 0] [0x2 2 1 [0 0] [2 6]] (REQUEST)
r 5.021488340 _2_ MAC  --- 0 AODV 48 [0 ffffffff 3 800] ------- [3:255 -1:255 29 0] [0x2 2 1 [0 0] [2 6]] (REQUEST)
r 5.021488465 _1_ MAC  --- 0 AODV 48 [0 ffffffff 3 800] ------- [3:255 -1:255 29 0] [0x2 2 1 [0 0] [2 6]] (REQUEST)
r 5.021513254 _4_ RTR  --- 0 AODV 48 [0 ffffffff 3 800] ------- [3:255 -1:255 29 0] [0x2 2 1 [0 0] [2 6]] (REQUEST)
r 5.021513340 _0_ RTR  --- 0 AODV 48 [0 ffffffff 3 800] ------- [3:255 -1:255 29 0] [0x2 2 1 [0 0] [2 6]] (REQUEST)
r 5.021513340 _2_ RTR  --- 0 AODV 48 [0 ffffffff 3 800] ------- [3:255 -1:255 29 0] [0x2 2 1 [0 0] [2 6]] (REQUEST)
r 5.021513465 _1_ RTR  --- 0 AODV 48 [0 ffffffff 3 800] ------- [3:255 -1:255 29 0] [0x2 2 1 [0 0] [2 6]] (REQUEST)
s 5.021558254 _4_ MAC  --- 0 AODV 106 [0 ffffffff 4 800] ------- [4:255 -1:255 29 0] [0x2 2 1 [0 0] [2 6]] (REQUEST)
s 5.021558465 _1_ MAC  --- 0 RTS 44 [24ce 2 1 0] 
D 5.021558765 _2_ MAC  COL 0 RTS 44 [24ce 2 1 0] 
D 5.022406442 _0_ MAC  COL 0 AODV 106 [0 ffffffff 4 800] ------- [4:255 -1:255 29 0] [0x2 2 1 [0 0] [2 6]] (REQUEST)
D 5.022406467 _3_ MAC  COL 0 AODV 106 [0 ffffffff 4 800] ------- [4:255 -1:255 29 0] [0x2 2 1 [0 0] [2 6]] (REQUEST)
D 5.022406489 _2_ MAC  COL 0 AODV 106 [0 ffffffff 4 800] ------- [4:255 -1:255 29 0] [0x2 2 1 [0 0] [2 6]] (REQUEST)
s 5.023520467 _1_ MAC  --- 0 RTS 44 [24ce 2 1 0] 
r 5.023872767 _2_ MAC  --- 0 RTS 44 [24ce 2 1 0] 
s 5.023882767 _2_ MAC  --- 0 CTS 38 [2394 1 0 0] 
r 5.024187067 _1_ MAC  --- 0 CTS 38 [2394 1 0 0] 
s 5.024197067 _1_ MAC  --- 2 tcp 1098 [13a 2 1 800] ------- [1:0 2:0 30 2] [1 0] 0 0
r 5.032981367 _2_ MAC  --- 2 tcp 1040 [13a 2 1 800] ------- [1:0 2:0 30 2] [1 0] 1 0
s 5.032991367 _2_ MAC  --- 0 ACK 38 [0 1 0 0] 
r 5.033006367 _2_ AGT  --- 2 tcp 1040 [13a 2 1 800] ------- [1:0 2:0 30 2] [1 0] 1 0
s 5.033006367 _2_ AGT  --- 4 ack 40 [0 0 0 0] ------- [2:1 0:0 32 0] [1 0] 0 0
r 5.033006367 _2_ RTR  --- 4 ack 40 [0 0 0 0] ------- [2:1 0:0 32 0] [1 0] 0 0
s 5.033006367 _2_ RTR  --- 4 ack 40 [0 0 0 0] ------- [2:1 0:0 30 0] [1 0] 0 0
r 5.033295667 _1_ MAC  --- 0 ACK 38 [0 1 0 0] 
s 5.033425367 _2_ MAC  --- 0 RTS 44 [58e 0 2 0] 
r 5.033777791 _0_ MAC  --- 0 RTS 44 [58e 0 2 0] 
s 5.033787791 _0_ MAC  --- 0 CTS 38 [454 2 0 0] 
r 5.034092216 _2_ MAC  --- 0 CTS 38 [454 2 0 0] 
s 5.034102216 _2_ MAC  --- 4 ack 98 [13a 0 2 800] ------- [2:1 0:0 30 0] [1 0] 0 0
r 5.034886640 _0_ MAC  --- 4 ack 40 [13a 0 2 800] ------- [2:1 0:0 30 0] [1 0] 1 0
s 5.034896640 _0_ MAC  --- 0 ACK 38 [0 2 0 0] 
r 5.034911640 _0_ AGT  --- 4 ack 40 [13a 0 2 800] ------- [2:1 0:0 30 0] [1 0] 1 0
s 5.034911640 _1_ AGT  --- 5 tcp 1040 [0 0 0 0] ------- [1:0 2:0 32 0] [3 0] 0 0
r 5.034911640 _1_ RTR  --- 5 tcp 1040 [0 0 0 0] ------- [1:0 2:0 32 0] [3 0] 0 0
s 5.034911640 _1_ AGT  --- 6 tcp 1040 [0 0 0 0] ------- [1:0 2:0 32 0] [4 0] 0 0
r 5.034911640 _1_ RTR  --- 6 tcp 1040 [0 0 0 0] ------- [1:0 2:0 32 0] [4 0] 0 0
s 5.034911640 _1_ RTR  --- 5 tcp 1040 [0 0 0 0] ------- [1:0 2:0 30 2] [3 0] 0 0
s 5.034911640 _1_ RTR  --- 6 tcp 1040 [0 0 0 0] ------- [1:0 2:0 30 2] [4 0] 0 0
r 5.035201064 _2_ MAC  --- 0 ACK 38 [0 2 0 0] 
s 5.035450940 _1_ MAC  --- 0 RTS 44 [24ce 2 1 0] 
r 5.035803240 _2_ MAC  --- 0 RTS 44 [24ce 2 1 0] 
s 5.035813240 _2_ MAC  --- 0 CTS 38 [2394 1 0 0] 
r 5.036117540 _1_ MAC  --- 0 CTS 38 [2394 1 0 0] 
s 5.036127540 _1_ MAC  --- 3 tcp 1098 [13a 2 1 800] ------- [1:0 2:0 30 2] [2 0] 0 0
r 5.044911840 _2_ MAC  --- 3 tcp 1040 [13a 2 1 800] ------- [1:0 2:0 30 2] [2 0] 1 0
s 5.044921840 _2_ MAC  --- 0 ACK 38 [0 1 0 0] 
r 5.044936840 _2_ AGT  --- 3 tcp 1040 [13a 2 1 800] ------- [1:0 2:0 30 2] [2 0] 1 0
s 5.044936840 _2_ AGT  --- 7 ack 40 [0 0 0 0] ------- [2:1 0:0 32 0] [2 0] 0 0
r 5.044936840 _2_ RTR  --- 7 ack 40 [0 0 0 0] ------- [2:1 0:0 32 0] [2 0] 0 0
s 5.044936840 _2_ RTR  --- 7 ack 40 [0 0 0 0] ------- [2:1 0:0 30 0] [2 0] 0 0
r 5.045226140 _1_ MAC  --- 0 ACK 38 [0 1 0 0] 
s 5.045375840 _2_ MAC  --- 0 RTS 44 [58e 0 2 0] 
r 5.045728264 _0_ MAC  --- 0 RTS 44 [58e 0 2 0] 
s 5.045738264 _0_ MAC  --- 0 CTS 38 [454 2 0 0] 
r 5.046042689 _2_ MAC  --- 0 CTS 38 [454 2 0 0] 
s 5.046052689 _2_ MAC  --- 7 ack 98 [13a 0 2 800] ------- [2:1 0:0 30 0] [2 0] 0 0
r 5.046837113 _0_ MAC  --- 7 ack 40 [13a 0 2 800] ------- [2:1 0:0 30 0] [2 0] 1 0
s 5.046847113 _0_ MAC  --- 0 ACK 38 [0 2 0 0] 
r 5.046862113 _0_ AGT  --- 7 ack 40 [13a 0 2 800] ------- [2:1 0:0 30 0] [2 0] 1 0
s 5.046862113 _1_ AGT  --- 8 tcp 1040 [0 0 0 0] ------- [1:0 2:0 32 0] [5 0] 0 0
r 5.046862113 _1_ RTR  --- 8 tcp 1040 [0 0 0 0] ------- [1:0 2:0 32 0] [5 0] 0 0
s 5.046862113 _1_ AGT  --- 9 tcp 1040 [0 0 0 0] ------- [1:0 2:0 32 0] [6 0] 0 0
r 5.046862113 _1_ RTR  --- 9 tcp 1040 [0 0 0 0] ------- [1:0 2:0 32 0] [6 0] 0 0
s 5.046862113 _1_ RTR  --- 8 tcp 1040 [0 0 0 0] ------- [1:0 2:0 30 2] [5 0] 0 0
s 5.046862113 _1_ RTR  --- 9 tcp 1040 [0 0 0 0] ------- [1:0 2:0 30 2] [6 0] 0 0
r 5.047151537 _2_ MAC  --- 0 ACK 38 [0 2 0 0] 
s 5.047641413 _1_ MAC  --- 0 RTS 44 [24ce 2 1 0] 
r 5.047993713 _2_ MAC  --- 0 RTS 44 [24ce 2 1 0] 
s 5.048003713 _2_ MAC  --- 0 CTS 38 [2394 1 0 0] 
r 5.048308013 _1_ MAC  --- 0 CTS 38 [2394 1 0 0] 
s 5.048318013 _1_ MAC  --- 5 tcp 1098 [13a 2 1 800] ------- [1:0 2:0 30 2] [3 0] 0 0
r 5.057102313 _2_ MAC  --- 5 tcp 1040 [13a 2 1 800] ------- [1:0 2:0 30 2] [3 0] 1 0
s 5.057112313 _2_ MAC  --- 0 ACK 38 [0 1 0 0] 
r 5.057127313 _2_ AGT  --- 5 tcp 1040 [13a 2 1 800] ------- [1:0 2:0 30 2] [3 0] 1 0
s 5.057127313 _2_ AGT  --- 10 ack 40 [0 0 0 0] ------- [2:1 0:0 32 0] [3 0] 0 0
r 5.057127313 _2_ RTR  --- 10 ack 40 [0 0 0 0] ------- [2:1 0:0 32 0] [3 0] 0 0
s 5.057127313 _2_ RTR  --- 10 ack 40 [0 0 0 0] ------- [2:1 0:0 30 0] [3 0] 0 0
r 5.057416613 _1_ MAC  --- 0 ACK 38 [0 1 0 0] 
s 5.057666313 _2_ MAC  --- 0 RTS 44 [58e 0 2 0] 
r 5.058018737 _0_ MAC  --- 0 RTS 44 [58e 0 2 0] 
s 5.058028737 _0_ MAC  --- 0 CTS 38 [454 2 0 0] 
r 5.058333161 _2_ MAC  --- 0 CTS 38 [454 2 0 0] 
s 5.058343161 _2_ MAC  --- 10 ack 98 [13a 0 2 800] ------- [2:1 0:0 30 0] [3 0] 0 0
r 5.059127586 _0_ MAC  --- 10 ack 40 [13a 0 2 800] ------- [2:1 0:0 30 0] [3 0] 1 0
s 5.059137586 _0_ MAC  --- 0 ACK 38 [0 2 0 0] 
r 5.059152586 _0_ AGT  --- 10 ack 40 [13a 0 2 800] ------- [2:1 0:0 30 0] [3 0] 1 0
s 5.059152586 _1_ AGT  --- 11 tcp 1040 [0 0 0 0] ------- [1:0 2:0 32 0] [7 0] 0 0
r 5.059152586 _1_ RTR  --- 11 tcp 1040 [0 0 0 0] ------- [1:0 2:0 32 0] [7 0] 0 0
s 5.059152586 _1_ AGT  --- 12 tcp 1040 [0 0 0 0] ------- [1:0 2:0 32 0] [8 0] 0 0
r 5.059152586 _1_ RTR  --- 12 tcp 1040 [0 0 0 0] ------- [1:0 2:0 32 0] [8 0] 0 0
s 5.059152586 _1_ RTR  --- 11 tcp 1040 [0 0 0 0] ------- [1:0 2:0 30 2] [7 0] 0 0
s 5.059152586 _1_ RTR  --- 12 tcp 1040 [0 0 0 0] ------- [1:0 2:0 30 2] [8 0] 0 0
r 5.059442010 _2_ MAC  --- 0 ACK 38 [0 2 0 0] 
s 5.059871886 _1_ MAC  --- 0 RTS 44 [24ce 2 1 0] 
r 5.060224186 _2_ MAC  --- 0 RTS 44 [24ce 2 1 0] 
s 5.060234186 _2_ MAC  --- 0 CTS 38 [2394 1 0 0] 
r 5.060538486 _1_ MAC  --- 0 CTS 38 [2394 1 0 0] 
s 5.060548486 _1_ MAC  --- 6 tcp 1098 [13a 2 1 800] ------- [1:0 2:0 30 2] [4 0] 0 0
r 5.069332786 _2_ MAC  --- 6 tcp 1040 [13a 2 1 800] ------- [1:0 2:0 30 2] [4 0] 1 0
s 5.069342786 _2_ MAC  --- 0 ACK 38 [0 1 0 0] 
r 5.069357786 _2_ AGT  --- 6 tcp 1040 [13a 2 1 800] ------- [1:0 2:0 30 2] [4 0] 1 0
s 5.069357786 _2_ AGT  --- 13 ack 40 [0 0 0 0] ------- [2:1 0:0 32 0] [4 0] 0 0
r 5.069357786 _2_ RTR  --- 13 ack 40 [0 0 0 0] ------- [2:1 0:0 32 0] [4 0] 0 0
s 5.069357786 _2_ RTR  --- 13 ack 40 [0 0 0 0] ------- [2:1 0:0 30 0] [4 0] 0 0
r 5.069647086 _1_ MAC  --- 0 ACK 38 [0 1 0 0] 
s 5.069816786 _2_ MAC  --- 0 RTS 44 [58e 0 2 0] 
r 5.070169210 _0_ MAC  --- 0 RTS 44 [58e 0 2 0] 
s 5.070179210 _0_ MAC  --- 0 CTS 38 [454 2 0 0] 
r 5.070483634 _2_ MAC  --- 0 CTS 38 [454 2 0 0] 
s 5.070493634 _2_ MAC  --- 13 ack 98 [13a 0 2 800] ------- [2:1 0:0 30 0] [4 0] 0 0
r 5.071278058 _0_ MAC  --- 13 ack 40 [13a 0 2 800] ------- [2:1 0:0 30 0] [4 0] 1 0
s 5.071288058 _0_ MAC  --- 0 ACK 38 [0 2 0 0] 
r 5.071303058 _0_ AGT  --- 13 ack 40 [13a 0 2 800] ------- [2:1 0:0 30 0] [4 0] 1 0
s 5.071303058 _1_ AGT  --- 14 tcp 1040 [0 0 0 0] ------- [1:0 2:0 32 0] [9 0] 0 0
r 5.071303058 _1_ RTR  --- 14 tcp 1040 [0 0 0 0] ------- [1:0 2:0 32 0] [9 0] 0 0
s 5.071303058 _1_ AGT  --- 15 tcp 1040 [0 0 0 0] ------- [1:0 2:0 32 0] [10 0] 0 0
r 5.071303058 _1_ RTR  --- 15 tcp 1040 [0 0 0 0] ------- [1:0 2:0 32 0] [10 0] 0 0
s 5.071303058 _1_ RTR  --- 14 tcp 1040 [0 0 0 0] ------- [1:0 2:0 30 2] [9 0] 0 0
s 5.071303058 _1_ RTR  --- 15 tcp 1040 [0 0 0 0] ------- [1:0 2:0 30 2] [10 0] 0 0
r 5.071592483 _2_ MAC  --- 0 ACK 38 [0 2 0 0] 
s 5.071882358 _1_ MAC  --- 0 RTS 44 [24ce 2 1 0] 
r 5.072234658 _2_ MAC  --- 0 RTS 44 [24ce 2 1 0] 
s 5.072244658 _2_ MAC  --- 0 CTS 38 [2394 1 0 0] 
r 5.072548958 _1_ MAC  --- 0 CTS 38 [2394 1 0 0] 
s 5.072558958 _1_ MAC  --- 8 tcp 1098 [13a 2 1 800] ------- [1:0 2:0 30 2] [5 0] 0 0
r 5.081343258 _2_ MAC  --- 8 tcp 1040 [13a 2 1 800] ------- [1:0 2:0 30 2] [5 0] 1 0
s 5.081353258 _2_ MAC  --- 0 ACK 38 [0 1 0 0] 
r 5.081368258 _2_ AGT  --- 8 tcp 1040 [13a 2 1 800] ------- [1:0 2:0 30 2] [5 0] 1 0
s 5.081368258 _2_ AGT  --- 16 ack 40 [0 0 0 0] ------- [2:1 0:0 32 0] [5 0] 0 0
r 5.081368258 _2_ RTR  --- 16 ack 40 [0 0 0 0] ------- [2:1 0:0 32 0] [5 0] 0 0
s 5.081368258 _2_ RTR  --- 16 ack 40 [0 0 0 0] ------- [2:1 0:0 30 0] [5 0] 0 0
r 5.081657558 _1_ MAC  --- 0 ACK 38 [0 1 0 0] 
s 5.081967258 _2_ MAC  --- 0 RTS 44 [58e 0 2 0] 
r 5.082319683 _0_ MAC  --- 0 RTS 44 [58e 0 2 0] 
s 5.082329683 _0_ MAC  --- 0 CTS 38 [454 2 0 0] 
r 5.082634107 _2_ MAC  --- 0 CTS 38 [454 2 0 0] 
s 5.082644107 _2_ MAC  --- 16 ack 98 [13a 0 2 800] ------- [2:1 0:0 30 0] [5 0] 0 0
r 5.083428531 _0_ MAC  --- 16 ack 40 [13a 0 2 800] ------- [2:1 0:0 30 0] [5 0] 1 0
s 5.083438531 _0_ MAC  --- 0 ACK 38 [0 2 0 0] 
r 5.083453531 _0_ AGT  --- 16 ack 40 [13a 0 2 800] ------- [2:1 0:0 30 0] [5 0] 1 0
s 5.083453531 _1_ AGT  --- 17 tcp 1040 [0 0 0 0] ------- [1:0 2:0 32 0] [11 0] 0 0
r 5.083453531 _1_ RTR  --- 17 tcp 1040 [0 0 0 0] ------- [1:0 2:0 32 0] [11 0] 0 0
s 5.083453531 _1_ AGT  --- 18 tcp 1040 [0 0 0 0] ------- [1:0 2:0 32 0] [12 0] 0 0
r 5.083453531 _1_ RTR  --- 18 tcp 1040 [0 0 0 0] ------- [1:0 2:0 32 0] [12 0] 0 0
s 5.083453531 _1_ RTR  --- 17 tcp 1040 [0 0 0 0] ------- [1:0 2:0 30 2] [11 0] 0 0
s 5.083453531 _1_ RTR  --- 18 tcp 1040 [0 0 0 0] ------- [1:0 2:0 30 2] [12 0] 0 0
r 5.083742955 _2_ MAC  --- 0 ACK 38 [0 2 0 0] 
s 5.083832831 _1_ MAC  --- 0 RTS 44 [24ce 2 1 0] 
r 5.084185131 _2_ MAC  --- 0 RTS 44 [24ce 2 1 0] 
s 5.084195131 _2_ MAC  --- 0 CTS 38 [2394 1 0 0] 
r 5.084499431 _1_ MAC  --- 0 CTS 38 [2394 1 0 0] 
s 5.084509431 _1_ MAC  --- 9 tcp 1098 [13a 2 1 800] ------- [1:0 2:0 30 2] [6 0] 0 0
r 5.093293731 _2_ MAC  --- 9 tcp 1040 [13a 2 1 800] ------- [1:0 2:0 30 2] [6 0] 1 0
s 5.093303731 _2_ MAC  --- 0 ACK 38 [0 1 0 0] 
r 5.093318731 _2_ AGT  --- 9 tcp 1040 [13a 2 1 800] ------- [1:0 2:0 30 2] [6 0] 1 0
s 5.093318731 _2_ AGT  --- 19 ack 40 [0 0 0 0] ------- [2:1 0:0 32 0] [6 0] 0 0
r 5.093318731 _2_ RTR  --- 19 ack 40 [0 0 0 0] ------- [2:1 0:0 32 0] [6 0] 0 0
s 5.093318731 _2_ RTR  --- 19 ack 40 [0 0 0 0] ------- [2:1 0:0 30 0] [6 0] 0 0
r 5.093608031 _1_ MAC  --- 0 ACK 38 [0 1 0 0] 
s 5.093797731 _2_ MAC  --- 0 RTS 44 [58e 0 2 0] 
r 5.094150155 _0_ MAC  --- 0 RTS 44 [58e 0 2 0] 
s 5.094160155 _0_ MAC  --- 0 CTS 38 [454 2 0 0] 
r 5.094464580 _2_ MAC  --- 0 CTS 38 [454 2 0 0] 
s 5.094474580 _2_ MAC  --- 19 ack 98 [13a 0 2 800] ------- [2:1 0:0 30 0] [6 0] 0 0
r 5.095259004 _0_ MAC  --- 19 ack 40 [13a 0 2 800] ------- [2:1 0:0 30 0] [6 0] 1 0
s 5.095269004 _0_ MAC  --- 0 ACK 38 [0 2 0 0] 
r 5.095284004 _0_ AGT  --- 19 ack 40 [13a 0 2 800] ------- [2:1 0:0 30 0] [6 0] 1 0
s 5.095284004 _1_ AGT  --- 20 tcp 1040 [0 0 0 0] ------- [1:0 2:0 32 0] [13 0] 0 0
r 5.095284004 _1_ RTR  --- 20 tcp 1040 [0 0 0 0] ------- [1:0 2:0 32 0] [13 0] 0 0
s 5.095284004 _1_ AGT  --- 21 tcp 1040 [0 0 0 0] ------- [1:0 2:0 32 0] [14 0] 0 0
r 5.095284004 _1_ RTR  --- 21 tcp 1040 [0 0 0 0] ------- [1:0 2:0 32 0] [14 0] 0 0
s 5.095284004 _1_ RTR  --- 20 tcp 1040 [0 0 0 0] ------- [1:0 2:0 30 2] [13 0] 0 0
s 5.095284004 _1_ RTR  --- 21 tcp 1040 [0 0 0 0] ------- [1:0 2:0 30 2] [14 0] 0 0
r 5.095573428 _2_ MAC  --- 0 ACK 38 [0 2 0 0] 
s 5.095763304 _1_ MAC  --- 0 RTS 44 [24ce 2 1 0] 
r 5.096115604 _2_ MAC  --- 0 RTS 44 [24ce 2 1 0] 
s 5.096125604 _2_ MAC  --- 0 CTS 38 [2394 1 0 0] 
r 5.096429904 _1_ MAC  --- 0 CTS 38 [2394 1 0 0] 
s 5.096439904 _1_ MAC  --- 11 tcp 1098 [13a 2 1 800] ------- [1:0 2:0 30 2] [7 0] 0 0
r 5.105224204 _2_ MAC  --- 11 tcp 1040 [13a 2 1 800] ------- [1:0 2:0 30 2] [7 0] 1 0
s 5.105234204 _2_ MAC  --- 0 ACK 38 [0 1 0 0] 
r 5.105249204 _2_ AGT  --- 11 tcp 1040 [13a 2 1 800] ------- [1:0 2:0 30 2] [7 0] 1 0
s 5.105249204 _2_ AGT  --- 22 ack 40 [0 0 0 0] ------- [2:1 0:0 32 0] [7 0] 0 0
r 5.105249204 _2_ RTR  --- 22 ack 40 [0 0 0 0] ------- [2:1 0:0 32 0] [7 0] 0 0
s 5.105249204 _2_ RTR  --- 22 ack 40 [0 0 0 0] ------- [2:1 0:0 30 0] [7 0] 0 0
r 5.105538504 _1_ MAC  --- 0 ACK 38 [0 1 0 0] 
s 5.105588504 _1_ MAC  --- 0 RTS 44 [24ce 2 1 0] 
r 5.105940804 _2_ MAC  --- 0 RTS 44 [24ce 2 1 0] 
s 5.105950804 _2_ MAC  --- 0 CTS 38 [2394 1 0 0] 
r 5.106255104 _1_ MAC  --- 0 CTS 38 [2394 1 0 0] 
s 5.106265104 _1_ MAC  --- 12 tcp 1098 [13a 2 1 800] ------- [1:0 2:0 30 2] [8 0] 0 0
r 5.115049404 _2_ MAC  --- 12 tcp 1040 [13a 2 1 800] ------- [1:0 2:0 30 2] [8 0] 1 0
s 5.115059404 _2_ MAC  --- 0 ACK 38 [0 1 0 0] 
r 5.115074404 _2_ AGT  --- 12 tcp 1040 [13a 2 1 800] ------- [1:0 2:0 30 2] [8 0] 1 0
s 5.115074404 _2_ AGT  --- 23 ack 40 [0 0 0 0] ------- [2:1 0:0 32 0] [8 0] 0 0
r 5.115074404 _2_ RTR  --- 23 ack 40 [0 0 0 0] ------- [2:1 0:0 32 0] [8 0] 0 0
s 5.115074404 _2_ RTR  --- 23 ack 40 [0 0 0 0] ------- [2:1 0:0 30 0] [8 0] 0 0
r 5.115363704 _1_ MAC  --- 0 ACK 38 [0 1 0 0] 
s 5.115633704 _1_ MAC  --- 0 RTS 44 [24ce 2 1 0] 
r 5.115986004 _2_ MAC  --- 0 RTS 44 [24ce 2 1 0] 
s 5.115996004 _2_ MAC  --- 0 CTS 38 [2394 1 0 0] 
r 5.116300304 _1_ MAC  --- 0 CTS 38 [2394 1 0 0] 
s 5.116310304 _1_ MAC  --- 14 tcp 1098 [13a 2 1 800] ------- [1:0 2:0 30 2] [9 0] 0 0
r 5.125094604 _2_ MAC  --- 14 tcp 1040 [13a 2 1 800] ------- [1:0 2:0 30 2] [9 0] 1 0
s 5.125104604 _2_ MAC  --- 0 ACK 38 [0 1 0 0] 
r 5.125119604 _2_ AGT  --- 14 tcp 1040 [13a 2 1 800] ------- [1:0 2:0 30 2] [9 0] 1 0
s 5.125119604 _2_ AGT  --- 24 ack 40 [0 0 0 0] ------- [2:1 0:0 32 0] [9 0] 0 0
r 5.125119604 _2_ RTR  --- 24 ack 40 [0 0 0 0] ------- [2:1 0:0 32 0] [9 0] 0 0
s 5.125119604 _2_ RTR  --- 24 ack 40 [0 0 0 0] ------- [2:1 0:0 30 0] [9 0] 0 0
r 5.125408904 _1_ MAC  --- 0 ACK 38 [0 1 0 0] 
s 5.125578604 _2_ MAC  --- 0 RTS 44 [58e 0 2 0] 
r 5.125931028 _0_ MAC  --- 0 RTS 44 [58e 0 2 0] 
s 5.125941028 _0_ MAC  --- 0 CTS 38 [454 2 0 0] 
r 5.126245452 _2_ MAC  --- 0 CTS 38 [454 2 0 0] 
s 5.126255452 _2_ MAC  --- 22 ack 98 [13a 0 2 800] ------- [2:1 0:0 30 0] [7 0] 0 0
r 5.127039877 _0_ MAC  --- 22 ack 40 [13a 0 2 800] ------- [2:1 0:0 30 0] [7 0] 1 0
s 5.127049877 _0_ MAC  --- 0 ACK 38 [0 2 0 0] 
r 5.127064877 _0_ AGT  --- 22 ack 40 [13a 0 2 800] ------- [2:1 0:0 30 0] [7 0] 1 0
s 5.127064877 _1_ AGT  --- 25 tcp 1040 [0 0 0 0] ------- [1:0 2:0 32 0] [15 0] 0 0
r 5.127064877 _1_ RTR  --- 25 tcp 1040 [0 0 0 0] ------- [1:0 2:0 32 0] [15 0] 0 0
s 5.127064877 _1_ AGT  --- 26 tcp 1040 [0 0 0 0] ------- [1:0 2:0 32 0] [16 0] 0 0
r 5.127064877 _1_ RTR  --- 26 tcp 1040 [0 0 0 0] ------- [1:0 2:0 32 0] [16 0] 0 0
s 5.127064877 _1_ RTR  --- 25 tcp 1040 [0 0 0 0] ------- [1:0 2:0 30 2] [15 0] 0 0
s 5.127064877 _1_ RTR  --- 26 tcp 1040 [0 0 0 0] ------- [1:0 2:0 30 2] [16 0] 0 0
r 5.127354301 _2_ MAC  --- 0 ACK 38 [0 2 0 0] 
s 5.127564301 _2_ MAC  --- 0 RTS 44 [58e 0 2 0] 
r 5.127916725 _0_ MAC  --- 0 RTS 44 [58e 0 2 0] 
s 5.127926725 _0_ MAC  --- 0 CTS 38 [454 2 0 0] 
r 5.128231150 _2_ MAC  --- 0 CTS 38 [454 2 0 0] 
s 5.128241150 _2_ MAC  --- 23 ack 98 [13a 0 2 800] ------- [2:1 0:0 30 0] [8 0] 0 0
r 5.129025574 _0_ MAC  --- 23 ack 40 [13a 0 2 800] ------- [2:1 0:0 30 0] [8 0] 1 0
s 5.129035574 _0_ MAC  --- 0 ACK 38 [0 2 0 0] 
r 5.129050574 _0_ AGT  --- 23 ack 40 [13a 0 2 800] ------- [2:1 0:0 30 0] [8 0] 1 0
s 5.129050574 _1_ AGT  --- 27 tcp 1040 [0 0 0 0] ------- [1:0 2:0 32 0] [17 0] 0 0
r 5.129050574 _1_ RTR  --- 27 tcp 1040 [0 0 0 0] ------- [1:0 2:0 32 0] [17 0] 0 0
s 5.129050574 _1_ AGT  --- 28 tcp 1040 [0 0 0 0] ------- [1:0 2:0 32 0] [18 0] 0 0
r 5.129050574 _1_ RTR  --- 28 tcp 1040 [0 0 0 0] ------- [1:0 2:0 32 0] [18 0] 0 0
s 5.129050574 _1_ RTR  --- 27 tcp 1040 [0 0 0 0] ------- [1:0 2:0 30 2] [17 0] 0 0
s 5.129050574 _1_ RTR  --- 28 tcp 1040 [0 0 0 0] ------- [1:0 2:0 30 2] [18 0] 0 0
r 5.129339998 _2_ MAC  --- 0 ACK 38 [0 2 0 0] 
s 5.129449874 _1_ MAC  --- 0 RTS 44 [24ce 2 1 0] 
r 5.129802174 _2_ MAC  --- 0 RTS 44 [24ce 2 1 0] 
s 5.129812174 _2_ MAC  --- 0 CTS 38 [2394 1 0 0] 
r 5.130116474 _1_ MAC  --- 0 CTS 38 [2394 1 0 0] 
s 5.130126474 _1_ MAC  --- 15 tcp 1098 [13a 2 1 800] ------- [1:0 2:0 30 2] [10 0] 0 0