n -t * -s 0  -x 0 -y 0 -Z 0 -z 40  -v circle -c black
n -t * -s 1  -x 0 -y 0 -Z 0 -z 40  -v circle -c black
n -t * -s 2  -x 0 -y 0 -Z 0 -z 40  -v circle -c black
n -t * -s 3  -x 0 -y 0 -Z 0 -z 40  -v circle -c black
n -t * -s 4  -x 0 -y 0 -Z 0 -z 40  -v circle -c black
V -t * -v 1.0a5 -a 0
W -t * -x 500 -y 500
A -t * -n 1 -p 0 -o 0x7fffffff -c 30 -a 1
A -t * -h 1 -m 1073741823 -s 0
n -t 1.000000 -s 0 -x 0.000000 -y 0.000000 -U 35.355339 -V 35.355339 -T 0.282843
n -t 1.000000 -s 1 -x 0.000000 -y 0.000000 -U 4.975186 -V 49.751860 -T 2.009975
n -t 1.000000 -s 4 -x 0.000000 -y 0.000000 -U 35.355339 -V 35.355339 -T 1.414214
n -t 1.000000 -s 2 -x 0.000000 -y 0.000000 -U 35.355339 -V 35.355339 -T 2.828427
n -t 1.000000 -s 3 -x 0.000000 -y 0.000000 -U 49.751860 -V 4.975186 -T 2.009975
+ -t 5.000000000 -s 1 -d -1 -p tcp -e 40 -c 2 -a 0 -i 0 -k AGT 
- -t 5.000000000 -s 1 -d -1 -p tcp -e 40 -c 2 -a 0 -i 0 -k AGT
h -t 5.000000000 -s 1 -d -1 -p tcp -e 40 -c 2 -a 0 -i 0 -k AGT
+ -t 5.000000000 -s 1 -d -1 -p AODV -e 48 -c 2 -a 0 -i 0 -k RTR 
- -t 5.000000000 -s 1 -d -1 -p AODV -e 48 -c 2 -a 0 -i 0 -k RTR
h -t 5.000000000 -s 1 -d -1 -p AODV -e 48 -c 2 -a 0 -i 0 -k RTR
+ -t 5.000635000 -s 1 -d -1 -p AODV -e 106 -c 2 -a 0 -i 0 -k MAC 
- -t 5.000635000 -s 1 -d -1 -p AODV -e 106 -c 2 -a 0 -i 0 -k MAC
h -t 5.000635000 -s 1 -d -1 -p AODV -e 106 -c 2 -a 0 -i 0 -k MAC
r -t 5.001483213 -s 4 -d -1 -p AODV -e 48 -c 2 -a 0 -i 0 -k MAC
r -t 5.001483300 -s 0 -d -1 -p AODV -e 48 -c 2 -a 0 -i 0 -k MAC
r -t 5.001483300 -s 2 -d -1 -p AODV -e 48 -c 2 -a 0 -i 0 -k MAC
r -t 5.001483424 -s 3 -d -1 -p AODV -e 48 -c 2 -a 0 -i 0 -k MAC
r -t 5.001508213 -s 4 -d -1 -p AODV -e 48 -c 2 -a 0 -i 0 -k RTR
r -t 5.001508300 -s 0 -d -1 -p AODV -e 48 -c 2 -a 0 -i 0 -k RTR
r -t 5.001508300 -s 2 -d -1 -p AODV -e 48 -c 2 -a 0 -i 0 -k RTR
+ -t 5.001508300 -s 2 -d 1 -p AODV -e 44 -c 2 -a 0 -i 0 -k RTR 
- -t 5.001508300 -s 2 -d 1 -p AODV -e 44 -c 2 -a 0 -i 0 -k RTR
h -t 5.001508300 -s 2 -d 1 -p AODV -e 44 -c 2 -a 0 -i 0 -k RTR
r -t 5.001508424 -s 3 -d -1 -p AODV -e 48 -c 2 -a 0 -i 0 -k RTR
+ -t 5.001763300 -s 2 -d -1 -p ARP -e 86 -c 2 -a 0 -i 0 -k MAC 
- -t 5.001763300 -s 2 -d -1 -p ARP -e 86 -c 2 -a 0 -i 0 -k MAC
h -t 5.001763300 -s 2 -d -1 -p ARP -e 86 -c 2 -a 0 -i 0 -k MAC
r -t 5.002451536 -s 4 -d -1 -p ARP -e 28 -c 2 -a 0 -i 0 -k MAC
r -t 5.002451600 -s 3 -d -1 -p ARP -e 28 -c 2 -a 0 -i 0 -k MAC
r -t 5.002451600 -s 1 -d -1 -p ARP -e 28 -c 2 -a 0 -i 0 -k MAC
r -t 5.002451724 -s 0 -d -1 -p ARP -e 28 -c 2 -a 0 -i 0 -k MAC
+ -t 5.002581600 -s 1 -d -1 -p RTS -e 44 -c 2 -a 0 -i 0 -k MAC 
- -t 5.002581600 -s 1 -d -1 -p RTS -e 44 -c 2 -a 0 -i 0 -k MAC
h -t 5.002581600 -s 1 -d -1 -p RTS -e 44 -c 2 -a 0 -i 0 -k MAC
r -t 5.002933900 -s 2 -d -1 -p RTS -e 44 -c 2 -a 0 -i 0 -k MAC
+ -t 5.002943900 -s 2 -d -1 -p CTS -e 38 -c 2 -a 0 -i 0 -k MAC 
- -t 5.002943900 -s 2 -d -1 -p CTS -e 38 -c 2 -a 0 -i 0 -k MAC
h -t 5.002943900 -s 2 -d -1 -p CTS -e 38 -c 2 -a 0 -i 0 -k MAC
r -t 5.003248200 -s 1 -d -1 -p CTS -e 38 -c 2 -a 0 -i 0 -k MAC
+ -t 5.003258200 -s 1 -d -1 -p ARP -e 86 -c 2 -a 0 -i 0 -k MAC 
- -t 5.003258200 -s 1 -d -1 -p ARP -e 86 -c 2 -a 0 -i 0 -k MAC
h -t 5.003258200 -s 1 -d -1 -p ARP -e 86 -c 2 -a 0 -i 0 -k MAC
r -t 5.003946500 -s 2 -d -1 -p ARP -e 28 -c 2 -a 0 -i 0 -k MAC
+ -t 5.003956500 -s 2 -d -1 -p ACK -e 38 -c 2 -a 0 -i 0 -k MAC 
- -t 5.003956500 -s 2 -d -1 -p ACK -e 38 -c 2 -a 0 -i 0 -k MAC
h -t 5.003956500 -s 2 -d -1 -p ACK -e 38 -c 2 -a 0 -i 0 -k MAC
r -t 5.004260800 -s 1 -d -1 -p ACK -e 38 -c 2 -a 0 -i 0 -k MAC
+ -t 5.004470500 -s 2 -d -1 -p RTS -e 44 -c 2 -a 0 -i 0 -k MAC 
- -t 5.004470500 -s 2 -d -1 -p RTS -e 44 -c 2 -a 0 -i 0 -k MAC
h -t 5.004470500 -s 2 -d -1 -p RTS -e 44 -c 2 -a 0 -i 0 -k MAC
+ -t 5.004638042 -s 3 -d -1 -p AODV -e 48 -c 2 -a 0 -i 0 -k RTR 
- -t 5.004638042 -s 3 -d -1 -p AODV -e 48 -c 2 -a 0 -i 0 -k RTR
h -t 5.004638042 -s 3 -d -1 -p AODV -e 48 -c 2 -a 0 -i 0 -k RTR
r -t 5.004822800 -s 1 -d -1 -p RTS -e 44 -c 2 -a 0 -i 0 -k MAC
+ -t 5.004832800 -s 1 -d -1 -p CTS -e 38 -c 2 -a 0 -i 0 -k MAC 
- -t 5.004832800 -s 1 -d -1 -p CTS -e 38 -c 2 -a 0 -i 0 -k MAC
h -t 5.004832800 -s 1 -d -1 -p CTS -e 38 -c 2 -a 0 -i 0 -k MAC
r -t 5.005137100 -s 2 -d -1 -p CTS -e 38 -c 2 -a 0 -i 0 -k MAC
+ -t 5.005147100 -s 2 -d 1 -p AODV -e 102 -c 2 -a 0 -i 0 -k MAC 
- -t 5.005147100 -s 2 -d 1 -p AODV -e 102 -c 2 -a 0 -i 0 -k MAC
h -t 5.005147100 -s 2 -d 1 -p AODV -e 102 -c 2 -a 0 -i 0 -k MAC
+ -t 5.005919947 -s 4 -d -1 -p AODV -e 48 -c 2 -a 0 -i 0 -k RTR 
- -t 5.005919947 -s 4 -d -1 -p AODV -e 48 -c 2 -a 0 -i 0 -k RTR
h -t 5.005919947 -s 4 -d -1 -p AODV -e 48 -c 2 -a 0 -i 0 -k RTR
r -t 5.005963400 -s 1 -d 1 -p AODV -e 44 -c 2 -a 0 -i 0 -k MAC
+ -t 5.005973400 -s 1 -d -1 -p ACK -e 38 -c 2 -a 0 -i 0 -k MAC 
- -t 5.005973400 -s 1 -d -1 -p ACK -e 38 -c 2 -a 0 -i 0 -k MAC
h -t 5.005973400 -s 1 -d -1 -p ACK -e 38 -c 2 -a 0 -i 0 -k MAC
+ -t 5.005988400 -s 1 -d 2 -p tcp -e 40 -c 2 -a 0 -i 0 -k RTR 
- -t 5.005988400 -s 1 -d 2 -p tcp -e 40 -c 2 -a 0 -i 0 -k RTR
h -t 5.005988400 -s 1 -d 2 -p tcp -e 40 -c 2 -a 0 -i 0 -k RTR
r -t 5.006277700 -s 2 -d -1 -p ACK -e 38 -c 2 -a 0 -i 0 -k MAC
+ -t 5.006527400 -s 1 -d -1 -p RTS -e 44 -c 2 -a 0 -i 0 -k MAC 
- -t 5.006527400 -s 1 -d -1 -p RTS -e 44 -c 2 -a 0 -i 0 -k MAC
h -t 5.006527400 -s 1 -d -1 -p RTS -e 44 -c 2 -a 0 -i 0 -k MAC
r -t 5.006879700 -s 2 -d -1 -p RTS -e 44 -c 2 -a 0 -i 0 -k MAC
+ -t 5.006889700 -s 2 -d -1 -p CTS -e 38 -c 2 -a 0 -i 0 -k MAC 
- -t 5.006889700 -s 2 -d -1 -p CTS -e 38 -c 2 -a 0 -i 0 -k MAC
h -t 5.006889700 -s 2 -d -1 -p CTS -e 38 -c 2 -a 0 -i 0 -k MAC
r -t 5.007194000 -s 1 -d -1 -p CTS -e 38 -c 2 -a 0 -i 0 -k MAC
+ -t 5.007204000 -s 1 -d 2 -p tcp -e 98 -c 2 -a 0 -i 0 -k MAC 
- -t 5.007204000 -s 1 -d 2 -p tcp -e 98 -c 2 -a 0 -i 0 -k MAC
h -t 5.007204000 -s 1 -d 2 -p tcp -e 98 -c 2 -a 0 -i 0 -k MAC
r -t 5.007988300 -s 2 -d 2 -p tcp -e 40 -c 2 -a 0 -i 0 -k MAC
+ -t 5.007998300 -s 2 -d -1 -p ACK -e 38 -c 2 -a 0 -i 0 -k MAC 
- -t 5.007998300 -s 2 -d -1 -p ACK -e 38 -c 2 -a 0 -i 0 -k MAC
h -t 5.007998300 -s 2 -d -1 -p ACK -e 38 -c 2 -a 0 -i 0 -k MAC
r -t 5.008013300 -s 2 -d 2 -p tcp -e 40 -c 2 -a 0 -i 0 -k AGT
+ -t 5.008013300 -s 2 -d -1 -p ack -e 40 -c 2 -a 0 -i 1 -k AGT 
- -t 5.008013300 -s 2 -d -1 -p ack -e 40 -c 2 -a 0 -i 1 -k AGT
h -t 5.008013300 -s 2 -d -1 -p ack -e 40 -c 2 -a 0 -i 1 -k AGT
+ -t 5.008013300 -s 2 -d -1 -p AODV -e 48 -c 2 -a 0 -i 0 -k RTR 
- -t 5.008013300 -s 2 -d -1 -p AODV -e 48 -c 2 -a 0 -i 0 -k RTR
h -t 5.008013300 -s 2 -d -1 -p AODV -e 48 -c 2 -a 0 -i 0 -k RTR
r -t 5.008302600 -s 1 -d -1 -p ACK -e 38 -c 2 -a 0 -i 0 -k MAC
+ -t 5.008392536 -s 4 -d -1 -p AODV -e 106 -c 2 -a 0 -i 0 -k MAC 
- -t 5.008392536 -s 4 -d -1 -p AODV -e 106 -c 2 -a 0 -i 0 -k MAC
h -t 5.008392536 -s 4 -d -1 -p AODV -e 106 -c 2 -a 0 -i 0 -k MAC
r -t 5.009240724 -s 0 -d -1 -p AODV -e 48 -c 2 -a 0 -i 0 -k MAC
r -t 5.009240749 -s 1 -d -1 -p AODV -e 48 -c 2 -a 0 -i 0 -k MAC
r -t 5.009240749 -s 3 -d -1 -p AODV -e 48 -c 2 -a 0 -i 0 -k MAC
r -t 5.009240771 -s 2 -d -1 -p AODV -e 48 -c 2 -a 0 -i 0 -k MAC
r -t 5.009265724 -s 0 -d -1 -p AODV -e 48 -c 2 -a 0 -i 0 -k RTR
r -t 5.009265749 -s 1 -d -1 -p AODV -e 48 -c 2 -a 0 -i 0 -k RTR
r -t 5.009265749 -s 3 -d -1 -p AODV -e 48 -c 2 -a 0 -i 0 -k RTR
r -t 5.009265771 -s 2 -d -1 -p AODV -e 48 -c 2 -a 0 -i 0 -k RTR
+ -t 5.009310749 -s 3 -d -1 -p AODV -e 106 -c 2 -a 0 -i 0 -k MAC 
- -t 5.009310749 -s 3 -d -1 -p AODV -e 106 -c 2 -a 0 -i 0 -k MAC
h -t 5.009310749 -s 3 -d -1 -p AODV -e 106 -c 2 -a 0 -i 0 -k MAC
+ -t 5.009499855 -s 0 -d -1 -p AODV -e 48 -c 2 -a 0 -i 0 -k RTR 
- -t 5.009499855 -s 0 -d -1 -p AODV -e 48 -c 2 -a 0 -i 0 -k RTR
h -t 5.009499855 -s 0 -d -1 -p AODV -e 48 -c 2 -a 0 -i 0 -k RTR
r -t 5.010158963 -s 4 -d -1 -p AODV -e 48 -c 2 -a 0 -i 0 -k MAC
r -t 5.010159049 -s 0 -d -1 -p AODV -e 48 -c 2 -a 0 -i 0 -k MAC
r -t 5.010159049 -s 2 -d -1 -p AODV -e 48 -c 2 -a 0 -i 0 -k MAC
r -t 5.010159173 -s 1 -d -1 -p AODV -e 48 -c 2 -a 0 -i 0 -k MAC
r -t 5.010183963 -s 4 -d -1 -p AODV -e 48 -c 2 -a 0 -i 0 -k RTR
r -t 5.010184049 -s 0 -d -1 -p AODV -e 48 -c 2 -a 0 -i 0 -k RTR
r -t 5.010184049 -s 2 -d -1 -p AODV -e 48 -c 2 -a 0 -i 0 -k RTR
r -t 5.010184173 -s 1 -d -1 -p AODV -e 48 -c 2 -a 0 -i 0 -k RTR
+ -t 5.010449049 -s 0 -d -1 -p AODV -e 106 -c 2 -a 0 -i 0 -k MAC 
- -t 5.010449049 -s 0 -d -1 -p AODV -e 106 -c 2 -a 0 -i 0 -k MAC
h -t 5.010449049 -s 0 -d -1 -p AODV -e 106 -c 2 -a 0 -i 0 -k MAC
r -t 5.011297238 -s 4 -d -1 -p AODV -e 48 -c 2 -a 0 -i 0 -k MAC
r -t 5.011297349 -s 1 -d -1 -p AODV -e 48 -c 2 -a 0 -i 0 -k MAC
r -t 5.011297349 -s 3 -d -1 -p AODV -e 48 -c 2 -a 0 -i 0 -k MAC
r -t 5.011297473 -s 2 -d -1 -p AODV -e 48 -c 2 -a 0 -i 0 -k MAC
r -t 5.011322238 -s 4 -d -1 -p AODV -e 48 -c 2 -a 0 -i 0 -k RTR
r -t 5.011322349 -s 1 -d -1 -p AODV -e 48 -c 2 -a 0 -i 0 -k RTR
r -t 5.011322349 -s 3 -d -1 -p AODV -e 48 -c 2 -a 0 -i 0 -k RTR
r -t 5.011322473 -s 2 -d -1 -p AODV -e 48 -c 2 -a 0 -i 0 -k RTR
+ -t 5.011587473 -s 2 -d -1 -p AODV -e 106 -c 2 -a 0 -i 0 -k MAC 
- -t 5.011587473 -s 2 -d -1 -p AODV -e 106 -c 2 -a 0 -i 0 -k MAC
h -t 5.011587473 -s 2 -d -1 -p AODV -e 106 -c 2 -a 0 -i 0 -k MAC
r -t 5.012435709 -s 4 -d -1 -p AODV -e 48 -c 2 -a 0 -i 0 -k MAC
r -t 5.012435773 -s 3 -d -1 -p AODV -e 48 -c 2 -a 0 -i 0 -k MAC
r -t 5.012435773 -s 1 -d -1 -p AODV -e 48 -c 2 -a 0 -i 0 -k MAC
r -t 5.012435898 -s 0 -d -1 -p AODV -e 48 -c 2 -a 0 -i 0 -k MAC
r -t 5.012460709 -s 4 -d -1 -p AODV -e 48 -c 2 -a 0 -i 0 -k RTR
r -t 5.012460773 -s 3 -d -1 -p AODV -e 48 -c 2 -a 0 -i 0 -k RTR
r -t 5.012460773 -s 1 -d -1 -p AODV -e 48 -c 2 -a 0 -i 0 -k RTR
r -t 5.012460898 -s 0 -d -1 -p AODV -e 48 -c 2 -a 0 -i 0 -k RTR
+ -t 5.012460898 -s 0 -d 2 -p AODV -e 44 -c 2 -a 0 -i 0 -k RTR 
- -t 5.012460898 -s 0 -d 2 -p AODV -e 44 -c 2 -a 0 -i 0 -k RTR
h -t 5.012460898 -s 0 -d 2 -p AODV -e 44 -c 2 -a 0 -i 0 -k RTR
+ -t 5.012725898 -s 0 -d -1 -p RTS -e 44 -c 2 -a 0 -i 0 -k MAC 
- -t 5.012725898 -s 0 -d -1 -p RTS -e 44 -c 2 -a 0 -i 0 -k MAC
h -t 5.012725898 -s 0 -d -1 -p RTS -e 44 -c 2 -a 0 -i 0 -k MAC
r -t 5.013078322 -s 2 -d -1 -p RTS -e 44 -c 2 -a 0 -i 0 -k MAC
+ -t 5.013088322 -s 2 -d -1 -p CTS -e 38 -c 2 -a 0 -i 0 -k MAC 
- -t 5.013088322 -s 2 -d -1 -p CTS -e 38 -c 2 -a 0 -i 0 -k MAC
h -t 5.013088322 -s 2 -d -1 -p CTS -e 38 -c 2 -a 0 -i 0 -k MAC
r -t 5.013392746 -s 0 -d -1 -p CTS -e 38 -c 2 -a 0 -i 0 -k MAC
+ -t 5.013402746 -s 0 -d 2 -p AODV -e 102 -c 2 -a 0 -i 0 -k MAC 
- -t 5.013402746 -s 0 -d 2 -p AODV -e 102 -c 2 -a 0 -i 0 -k MAC
h -t 5.013402746 -s 0 -d 2 -p AODV -e 102 -c 2 -a 0 -i 0 -k MAC
r -t 5.014219170 -s 2 -d 2 -p AODV -e 44 -c 2 -a 0 -i 0 -k MAC
+ -t 5.014229170 -s 2 -d -1 -p ACK -e 38 -c 2 -a 0 -i 0 -k MAC 
- -t 5.014229170 -s 2 -d -1 -p ACK -e 38 -c 2 -a 0 -i 0 -k MAC
h -t 5.014229170 -s 2 -d -1 -p ACK -e 38 -c 2 -a 0 -i 0 -k MAC
+ -t 5.014244170 -s 2 -d 0 -p ack -e 40 -c 2 -a 0 -i 1 -k RTR 
- -t 5.014244170 -s 2 -d 0 -p ack -e 40 -c 2 -a 0 -i 1 -k RTR
h -t 5.014244170 -s 2 -d 0 -p ack -e 40 -c 2 -a 0 -i 1 -k RTR
r -t 5.014533595 -s 0 -d -1 -p ACK -e 38 -c 2 -a 0 -i 0 -k MAC
+ -t 5.014683170 -s 2 -d -1 -p ARP -e 86 -c 2 -a 0 -i 0 -k MAC 
- -t 5.014683170 -s 2 -d -1 -p ARP -e 86 -c 2 -a 0 -i 0 -k MAC
h -t 5.014683170 -s 2 -d -1 -p ARP -e 86 -c 2 -a 0 -i 0 -k MAC
+ -t 5.015041653 -s 1 -d -1 -p AODV -e 48 -c 2 -a 0 -i 0 -k RTR 
- -t 5.015041653 -s 1 -d -1 -p AODV -e 48 -c 2 -a 0 -i 0 -k RTR
h -t 5.015041653 -s 1 -d -1 -p AODV -e 48 -c 2 -a 0 -i 0 -k RTR
r -t 5.015371406 -s 4 -d -1 -p ARP -e 28 -c 2 -a 0 -i 0 -k MAC
r -t 5.015371470 -s 3 -d -1 -p ARP -e 28 -c 2 -a 0 -i 0 -k MAC
r -t 5.015371470 -s 1 -d -1 -p ARP -e 28 -c 2 -a 0 -i 0 -k MAC
r -t 5.015371595 -s 0 -d -1 -p ARP -e 28 -c 2 -a 0 -i 0 -k MAC
+ -t 5.015606595 -s 0 -d -1 -p RTS -e 44 -c 2 -a 0 -i 0 -k MAC 
- -t 5.015606595 -s 0 -d -1 -p RTS -e 44 -c 2 -a 0 -i 0 -k MAC
h -t 5.015606595 -s 0 -d -1 -p RTS -e 44 -c 2 -a 0 -i 0 -k MAC
+ -t 5.015948184 -s 3 -d -1 -p AODV -e 48 -c 2 -a 0 -i 0 -k RTR 
- -t 5.015948184 -s 3 -d -1 -p AODV -e 48 -c 2 -a 0 -i 0 -k RTR
h -t 5.015948184 -s 3 -d -1 -p AODV -e 48 -c 2 -a 0 -i 0 -k RTR
r -t 5.015959019 -s 2 -d -1 -p RTS -e 44 -c 2 -a 0 -i 0 -k MAC
+ -t 5.015969019 -s 2 -d -1 -p CTS -e 38 -c 2 -a 0 -i 0 -k MAC 
- -t 5.015969019 -s 2 -d -1 -p CTS -e 38 -c 2 -a 0 -i 0 -k MAC
h -t 5.015969019 -s 2 -d -1 -p CTS -e 38 -c 2 -a 0 -i 0 -k MAC
r -t 5.016273443 -s 0 -d -1 -p CTS -e 38 -c 2 -a 0 -i 0 -k MAC
+ -t 5.016283443 -s 0 -d -1 -p ARP -e 86 -c 2 -a 0 -i 0 -k MAC 
- -t 5.016283443 -s 0 -d -1 -p ARP -e 86 -c 2 -a 0 -i 0 -k MAC
h -t 5.016283443 -s 0 -d -1 -p ARP -e 86 -c 2 -a 0 -i 0 -k MAC
r -t 5.016971868 -s 2 -d -1 -p ARP -e 28 -c 2 -a 0 -i 0 -k MAC
+ -t 5.016981868 -s 2 -d -1 -p ACK -e 38 -c 2 -a 0 -i 0 -k MAC 
- -t 5.016981868 -s 2 -d -1 -p ACK -e 38 -c 2 -a 0 -i 0 -k MAC
h -t 5.016981868 -s 2 -d -1 -p ACK -e 38 -c 2 -a 0 -i 0 -k MAC
r -t 5.017286292 -s 0 -d -1 -p ACK -e 38 -c 2 -a 0 -i 0 -k MAC
+ -t 5.017396168 -s 1 -d -1 -p AODV -e 106 -c 2 -a 0 -i 0 -k MAC 
- -t 5.017396168 -s 1 -d -1 -p AODV -e 106 -c 2 -a 0 -i 0 -k MAC
h -t 5.017396168 -s 1 -d -1 -p AODV -e 106 -c 2 -a 0 -i 0 -k MAC
r -t 5.018244381 -s 4 -d -1 -p AODV -e 48 -c 2 -a 0 -i 0 -k MAC
r -t 5.018244468 -s 0 -d -1 -p AODV -e 48 -c 2 -a 0 -i 0 -k MAC
r -t 5.018244468 -s 2 -d -1 -p AODV -e 48 -c 2 -a 0 -i 0 -k MAC
r -t 5.018244592 -s 3 -d -1 -p AODV -e 48 -c 2 -a 0 -i 0 -k MAC
r -t 5.018269381 -s 4 -d -1 -p AODV -e 48 -c 2 -a 0 -i 0 -k RTR
r -t 5.018269468 -s 0 -d -1 -p AODV -e 48 -c 2 -a 0 -i 0 -k RTR
r -t 5.018269468 -s 2 -d -1 -p AODV -e 48 -c 2 -a 0 -i 0 -k RTR
r -t 5.018269592 -s 3 -d -1 -p AODV -e 48 -c 2 -a 0 -i 0 -k RTR
+ -t 5.018494468 -s 2 -d -1 -p RTS -e 44 -c 2 -a 0 -i 0 -k MAC 
- -t 5.018494468 -s 2 -d -1 -p RTS -e 44 -c 2 -a 0 -i 0 -k MAC
h -t 5.018494468 -s 2 -d -1 -p RTS -e 44 -c 2 -a 0 -i 0 -k MAC
r -t 5.018846892 -s 0 -d -1 -p RTS -e 44 -c 2 -a 0 -i 0 -k MAC
+ -t 5.018856892 -s 0 -d -1 -p CTS -e 38 -c 2 -a 0 -i 0 -k MAC 
- -t 5.018856892 -s 0 -d -1 -p CTS -e 38 -c 2 -a 0 -i 0 -k MAC
h -t 5.018856892 -s 0 -d -1 -p CTS -e 38 -c 2 -a 0 -i 0 -k MAC
r -t 5.019161316 -s 2 -d -1 -p CTS -e 38 -c 2 -a 0 -i 0 -k MAC
+ -t 5.019171316 -s 2 -d 0 -p ack -e 98 -c 2 -a 0 -i 1 -k MAC 
- -t 5.019171316 -s 2 -d 0 -p ack -e 98 -c 2 -a 0 -i 1 -k MAC
h -t 5.019171316 -s 2 -d 0 -p ack -e 98 -c 2 -a 0 -i 1 -k MAC
r -t 5.019955740 -s 0 -d 0 -p ack -e 40 -c 2 -a 0 -i 1 -k MAC
+ -t 5.019965740 -s 0 -d -1 -p ACK -e 38 -c 2 -a 0 -i 0 -k MAC 
- -t 5.019965740 -s 0 -d -1 -p ACK -e 38 -c 2 -a 0 -i 0 -k MAC
h -t 5.019965740 -s 0 -d -1 -p ACK -e 38 -c 2 -a 0 -i 0 -k MAC
r -t 5.019980740 -s 0 -d 0 -p ack -e 40 -c 2 -a 0 -i 1 -k AGT
+ -t 5.019980740 -s 1 -d -1 -p tcp -e 1040 -c 2 -a 0 -i 2 -k AGT 
- -t 5.019980740 -s 1 -d -1 -p tcp -e 1040 -c 2 -a 0 -i 2 -k AGT
h -t 5.019980740 -s 1 -d -1 -p tcp -e 1040 -c 2 -a 0 -i 2 -k AGT
+ -t 5.019980740 -s 1 -d -1 -p tcp -e 1040 -c 2 -a 0 -i 3 -k AGT 
- -t 5.019980740 -s 1 -d -1 -p tcp -e 1040 -c 2 -a 0 -i 3 -k AGT
h -t 5.019980740 -s 1 -d -1 -p tcp -e 1040 -c 2 -a 0 -i 3 -k AGT
+ -t 5.019980740 -s 1 -d 2 -p tcp -e 1040 -c 2 -a 0 -i 2 -k RTR 
- -t 5.019980740 -s 1 -d 2 -p tcp -e 1040 -c 2 -a 0 -i 2 -k RTR
h -t 5.019980740 -s 1 -d 2 -p tcp -e 1040 -c 2 -a 0 -i 2 -k RTR
+ -t 5.019980740 -s 1 -d 2 -p tcp -e 1040 -c 2 -a 0 -i 3 -k RTR 
- -t 5.019980740 -s 1 -d 2 -p tcp -e 1040 -c 2 -a 0 -i 3 -k RTR
h -t 5.019980740 -s 1 -d 2 -p tcp -e 1040 -c 2 -a 0 -i 3 -k RTR
r -t 5.020270165 -s 2 -d -1 -p ACK -e 38 -c 2 -a 0 -i 0 -k MAC
+ -t 5.020530995 -s 4 -d -1 -p AODV -e 48 -c 2 -a 0 -i 0 -k RTR 
- -t 5.020530995 -s 4 -d -1 -p AODV -e 48 -c 2 -a 0 -i 0 -k RTR
h -t 5.020530995 -s 4 -d -1 -p AODV -e 48 -c 2 -a 0 -i 0 -k RTR
+ -t 5.020640040 -s 3 -d -1 -p AODV -e 106 -c 2 -a 0 -i 0 -k MAC 
- -t 5.020640040 -s 3 -d -1 -p AODV -e 106 -c 2 -a 0 -i 0 -k MAC
h -t 5.020640040 -s 3 -d -1 -p AODV -e 106 -c 2 -a 0 -i 0 -k MAC
r -t 5.021488254 -s 4 -d -1 -p AODV -e 48 -c 2 -a 0 -i 0 -k MAC
r -t 5.021488340 -s 0 -d -1 -p AODV -e 48 -c 2 -a 0 -i 0 -k MAC
r -t 5.021488340 -s 2 -d -1 -p AODV -e 48 -c 2 -a 0 -i 0 -k MAC
r -t 5.021488465 -s 1 -d -1 -p AODV -e 48 -c 2 -a 0 -i 0 -k MAC
r -t 5.021513254 -s 4 -d -1 -p AODV -e 48 -c 2 -a 0 -i 0 -k RTR
r -t 5.021513340 -s 0 -d -1 -p AODV -e 48 -c 2 -a 0 -i 0 -k RTR
r -t 5.021513340 -s 2 -d -1 -p AODV -e 48 -c 2 -a 0 -i 0 -k RTR
r -t 5.021513465 -s 1 -d -1 -p AODV -e 48 -c 2 -a 0 -i 0 -k RTR
+ -t 5.021558254 -s 4 -d -1 -p AODV -e 106 -c 2 -a 0 -i 0 -k MAC 
- -t 5.021558254 -s 4 -d -1 -p AODV -e 106 -c 2 -a 0 -i 0 -k MAC
h -t 5.021558254 -s 4 -d -1 -p AODV -e 106 -c 2 -a 0 -i 0 -k MAC
+ -t 5.021558465 -s 1 -d -1 -p RTS -e 44 -c 2 -a 0 -i 0 -k MAC 
- -t 5.021558465 -s 1 -d -1 -p RTS -e 44 -c 2 -a 0 -i 0 -k MAC
h -t 5.021558465 -s 1 -d -1 -p RTS -e 44 -c 2 -a 0 -i 0 -k MAC
d -t 5.021558765 -s 2 -d -1 -p RTS -e 44 -c 2 -a 0 -i 0 -k MAC
d -t 5.022406442 -s 0 -d -1 -p AODV -e 106 -c 2 -a 0 -i 0 -k MAC
d -t 5.022406467 -s 3 -d -1 -p AODV -e 106 -c 2 -a 0 -i 0 -k MAC
d -t 5.022406489 -s 2 -d -1 -p AODV -e 106 -c 2 -a 0 -i 0 -k MAC
+ -t 5.023520467 -s 1 -d -1 -p RTS -e 44 -c 2 -a 0 -i 0 -k MAC 
- -t 5.023520467 -s 1 -d -1 -p RTS -e 44 -c 2 -a 0 -i 0 -k MAC
h -t 5.023520467 -s 1 -d -1 -p RTS -e 44 -c 2 -a 0 -i 0 -k MAC
r -t 5.023872767 -s 2 -d -1 -p RTS -e 44 -c 2 -a 0 -i 0 -k MAC
+ -t 5.023882767 -s 2 -d -1 -p CTS -e 38 -c 2 -a 0 -i 0 -k MAC 
- -t 5.023882767 -s 2 -d -1 -p CTS -e 38 -c 2 -a 0 -i 0 -k MAC
h -t 5.023882767 -s 2 -d -1 -p CTS -e 38 -c 2 -a 0 -i 0 -k MAC
r -t 5.024187067 -s 1 -d -1 -p CTS -e 38 -c 2 -a 0 -i 0 -k MAC
+ -t 5.024197067 -s 1 -d 2 -p tcp -e 1098 -c 2 -a 0 -i 2 -k MAC 
- -t 5.024197067 -s 1 -d 2 -p tcp -e 1098 -c 2 -a 0 -i 2 -k MAC
h -t 5.024197067 -s 1 -d 2 -p tcp -e 1098 -c 2 -a 0 -i 2 -k MAC
r -t 5.032981367 -s 2 -d 2 -p tcp -e 1040 -c 2 -a 0 -i 2 -k MAC
+ -t 5.032991367 -s 2 -d -1 -p ACK -e 38 -c 2 -a 0 -i 0 -k MAC 
- -t 5.032991367 -s 2 -d -1 -p ACK -e 38 -c 2 -a 0 -i 0 -k MAC
h -t 5.032991367 -s 2 -d -1 -p ACK -e 38 -c 2 -a 0 -i 0 -k MAC
r -t 5.033006367 -s 2 -d 2 -p tcp -e 1040 -c 2 -a 0 -i 2 -k AGT
+ -t 5.033006367 -s 2 -d -1 -p ack -e 40 -c 2 -a 0 -i 4 -k AGT 
- -t 5.033006367 -s 2 -d -1 -p ack -e 40 -c 2 -a 0 -i 4 -k AGT
h -t 5.033006367 -s 2 -d -1 -p ack -e 40 -c 2 -a 0 -i 4 -k AGT
+ -t 5.033006367 -s 2 -d 0 -p ack -e 40 -c 2 -a 0 -i 4 -k RTR 
- -t 5.033006367 -s 2 -d 0 -p ack -e 40 -c 2 -a 0 -i 4 -k RTR
h -t 5.033006367 -s 2 -d 0 -p ack -e 40 -c 2 -a 0 -i 4 -k RTR
r -t 5.033295667 -s 1 -d -1 -p ACK -e 38 -c 2 -a 0 -i 0 -k MAC
+ -t 5.033425367 -s 2 -d -1 -p RTS -e 44 -c 2 -a 0 -i 0 -k MAC 
- -t 5.033425367 -s 2 -d -1 -p RTS -e 44 -c 2 -a 0 -i 0 -k MAC
h -t 5.033425367 -s 2 -d -1 -p RTS -e 44 -c 2 -a 0 -i 0 -k MAC
r -t 5.033777791 -s 0 -d -1 -p RTS -e 44 -c 2 -a 0 -i 0 -k MAC
+ -t 5.033787791 -s 0 -d -1 -p CTS -e 38 -c 2 -a 0 -i 0 -k MAC 
- -t 5.033787791 -s 0 -d -1 -p CTS -e 38 -c 2 -a 0 -i 0 -k MAC
h -t 5.033787791 -s 0 -d -1 -p CTS -e 38 -c 2 -a 0 -i 0 -k MAC
r -t 5.034092216 -s 2 -d -1 -p CTS -e 38 -c 2 -a 0 -i 0 -k MAC
+ -t 5.034102216 -s 2 -d 0 -p ack -e 98 -c 2 -a 0 -i 4 -k MAC 
- -t 5.034102216 -s 2 -d 0 -p ack -e 98 -c 2 -a 0 -i 4 -k MAC
h -t 5.034102216 -s 2 -d 0 -p ack -e 98 -c 2 -a 0 -i 4 -k MAC
r -t 5.034886640 -s 0 -d 0 -p ack -e 40 -c 2 -a 0 -i 4 -k MAC
+ -t 5.034896640 -s 0 -d -1 -p ACK -e 38 -c 2 -a 0 -i 0 -k MAC 
- -t 5.034896640 -s 0 -d -1 -p ACK -e 38 -c 2 -a 0 -i 0 -k MAC
h -t 5.034896640 -s 0 -d -1 -p ACK -e 38 -c 2 -a 0 -i 0 -k MAC
r -t 5.034911640 -s 0 -d 0 -p ack -e 40 -c 2 -a 0 -i 4 -k AGT
+ -t 5.034911640 -s 1 -d -1 -p tcp -e 1040 -c 2 -a 0 -i 5 -k AGT 
- -t 5.034911640 -s 1 -d -1 -p tcp -e 1040 -c 2 -a 0 -i 5 -k AGT
h -t 5.034911640 -s 1 -d -1 -p tcp -e 1040 -c 2 -a 0 -i 5 -k AGT
+ -t 5.034911640 -s 1 -d -1 -p tcp -e 1040 -c 2 -a 0 -i 6 -k AGT 
- -t 5.034911640 -s 1 -d -1 -p tcp -e 1040 -c 2 -a 0 -i 6 -k AGT
h -t 5.034911640 -s 1 -d -1 -p tcp -e 1040 -c 2 -a 0 -i 6 -k AGT
+ -t 5.034911640 -s 1 -d 2 -p tcp -e 1040 -c 2 -a 0 -i 5 -k RTR 
- -t 5.034911640 -s 1 -d 2 -p tcp -e 1040 -c 2 -a 0 -i 5 -k RTR
h -t 5.034911640 -s 1 -d 2 -p tcp -e 1040 -c 2 -a 0 -i 5 -k RTR
+ -t 5.034911640 -s 1 -d 2 -p tcp -e 1040 -c 2 -a 0 -i 6 -k RTR 
- -t 5.034911640 -s 1 -d 2 -p tcp -e 1040 -c 2 -a 0 -i 6 -k RTR
h -t 5.034911640 -s 1 -d 2 -p tcp -e 1040 -c 2 -a 0 -i 6 -k RTR
r -t 5.035201064 -s 2 -d -1 -p ACK -e 38 -c 2 -a 0 -i 0 -k MAC
+ -t 5.035450940 -s 1 -d -1 -p RTS -e 44 -c 2 -a 0 -i 0 -k MAC 
- -t 5.035450940 -s 1 -d -1 -p RTS -e 44 -c 2 -a 0 -i 0 -k MAC
h -t 5.035450940 -s 1 -d -1 -p RTS -e 44 -c 2 -a 0 -i 0 -k MAC
r -t 5.035803240 -s 2 -d -1 -p RTS -e 44 -c 2 -a 0 -i 0 -k MAC
+ -t 5.035813240 -s 2 -d -1 -p CTS -e 38 -c 2 -a 0 -i 0 -k MAC 
- -t 5.035813240 -s 2 -d -1 -p CTS -e 38 -c 2 -a 0 -i 0 -k MAC
h -t 5.035813240 -s 2 -d -1 -p CTS -e 38 -c 2 -a 0 -i 0 -k MAC
r -t 5.036117540 -s 1 -d -1 -p CTS -e 38 -c 2 -a 0 -i 0 -k MAC
+ -t 5.036127540 -s 1 -d 2 -p tcp -e 1098 -c 2 -a 0 -i 3 -k MAC 
- -t 5.036127540 -s 1 -d 2 -p tcp -e 1098 -c 2 -a 0 -i 3 -k MAC
h -t 5.036127540 -s 1 -d 2 -p tcp -e 1098 -c 2 -a 0 -i 3 -k MAC
r -t 5.044911840 -s 2 -d 2 -p tcp -e 1040 -c 2 -a 0 -i 3 -k MAC
+ -t 5.044921840 -s 2 -d -1 -p ACK -e 38 -c 2 -a 0 -i 0 -k MAC 
- -t 5.044921840 -s 2 -d -1 -p ACK -e 38 -c 2 -a 0 -i 0 -k MAC
h -t 5.044921840 -s 2 -d -1 -p ACK -e 38 -c 2 -a 0 -i 0 -k MAC
r -t 5.044936840 -s 2 -d 2 -p tcp -e 1040 -c 2 -a 0 -i 3 -k AGT
+ -t 5.044936840 -s 2 -d -1 -p ack -e 40 -c 2 -a 0 -i 7 -k AGT 
- -t 5.044936840 -s 2 -d -1 -p ack -e 40 -c 2 -a 0 -i 7 -k AGT
h -t 5.044936840 -s 2 -d -1 -p ack -e 40 -c 2 -a 0 -i 7 -k AGT
+ -t 5.044936840 -s 2 -d 0 -p ack -e 40 -c 2 -a 0 -i 7 -k RTR 
- -t 5.044936840 -s 2 -d 0 -p ack -e 40 -c 2 -a 0 -i 7 -k RTR
h -t 5.044936840 -s 2 -d 0 -p ack -e 40 -c 2 -a 0 -i 7 -k RTR
r -t 5.045226140 -s 1 -d -1 -p ACK -e 38 -c 2 -a 0 -i 0 -k MAC
+ -t 5.045375840 -s 2 -d -1 -p RTS -e 44 -c 2 -a 0 -i 0 -k MAC 
- -t 5.045375840 -s 2 -d -1 -p RTS -e 44 -c 2 -a 0 -i 0 -k MAC
h -t 5.045375840 -s 2 -d -1 -p RTS -e 44 -c 2 -a 0 -i 0 -k MAC
r -t 5.045728264 -s 0 -d -1 -p RTS -e 44 -c 2 -a 0 -i 0 -k MAC
+ -t 5.045738264 -s 0 -d -1 -p CTS -e 38 -c 2 -a 0 -i 0 -k MAC 
- -t 5.045738264 -s 0 -d -1 -p CTS -e 38 -c 2 -a 0 -i 0 -k MAC
h -t 5.045738264 -s 0 -d -1 -p CTS -e 38 -c 2 -a 0 -i 0 -k MAC
r -t 5.046042689 -s 2 -d -1 -p CTS -e 38 -c 2 -a 0 -i 0 -k MAC
+ -t 5.046052689 -s 2 -d 0 -p ack -e 98 -c 2 -a 0 -i 7 -k MAC 
- -t 5.046052689 -s 2 -d 0 -p ack -e 98 -c 2 -a 0 -i 7 -k MAC
h -t 5.046052689 -s 2 -d 0 -p ack -e 98 -c 2 -a 0 -i 7 -k MAC
r -t 5.046837113 -s 0 -d 0 -p ack -e 40 -c 2 -a 0 -i 7 -k MAC
+ -t 5.046847113 -s 0 -d -1 -p ACK -e 38 -c 2 -a 0 -i 0 -k MAC 
- -t 5.046847113 -s 0 -d -1 -p ACK -e 38 -c 2 -a 0 -i 0 -k MAC
h -t 5.046847113 -s 0 -d -1 -p ACK -e 38 -c 2 -a 0 -i 0 -k MAC
r -t 5.046862113 -s 0 -d 0 -p ack -e 40 -c 2 -a 0 -i 7 -k AGT
+ -t 5.046862113 -s 1 -d -1 -p tcp -e 1040 -c 2 -a 0 -i 8 -k AGT 
- -t 5.046862113 -s 1 -d -1 -p tcp -e 1040 -c 2 -a 0 -i 8 -k AGT
h -t 5.046862113 -s 1 -d -1 -p tcp -e 1040 -c 2 -a 0 -i 8 -k AGT
+ -t 5.046862113 -s 1 -d -1 -p tcp -e 1040 -c 2 -a 0 -i 9 -k AGT 
- -t 5.046862113 -s 1 -d -1 -p tcp -e 1040 -c 2 -a 0 -i 9 -k AGT
h -t 5.046862113 -s 1 -d -1 -p tcp -e 1040 -c 2 -a 0 -i 9 -k AGT
+ -t 5.046862113 -s 1 -d 2 -p tcp -e 1040 -c 2 -a 0 -i 8 -k RTR 
- -t 5.046862113 -s 1 -d 2 -p tcp -e 1040 -c 2 -a 0 -i 8 -k RTR
h -t 5.046862113 -s 1 -d 2 -p tcp -e 1040 -c 2 -a 0 -i 8 -k RTR
+ -t 5.046862113 -s 1 -d 2 -p tcp -e 1040 -c 2 -a 0 -i 9 -k RTR 
- -t 5.046862113 -s 1 -d 2 -p tcp -e 1040 -c 2 -a 0 -i 9 -k RTR
h -t 5.046862113 -s 1 -d 2 -p tcp -e 1040 -c 2 -a 0 -i 9 -k RTR
r -t 5.047151537 -s 2 -d -1 -p ACK -e 38 -c 2 -a 0 -i 0 -k MAC
+ -t 5.047641413 -s 1 -d -1 -p RTS -e 44 -c 2 -a 0 -i 0 -k MAC 
- -t 5.047641413 -s 1 -d -1 -p RTS -e 44 -c 2 -a 0 -i 0 -k MAC
h -t 5.047641413 -s 1 -d -1 -p RTS -e 44 -c 2 -a 0 -i 0 -k MAC
r -t 5.047993713 -s 2 -d -1 -p RTS -e 44 -c 2 -a 0 -i 0 -k MAC
+ -t 5.048003713 -s 2 -d -1 -p CTS -e 38 -c 2 -a 0 -i 0 -k MAC 
- -t 5.048003713 -s 2 -d -1 -p CTS -e 38 -c 2 -a 0 -i 0 -k MAC
h -t 5.048003713 -s 2 -d -1 -p CTS -e 38 -c 2 -a 0 -i 0 -k MAC
r -t 5.048308013 -s 1 -d -1 -p CTS -e 38 -c 2 -a 0 -i 0 -k MAC
+ -t 5.048318013 -s 1 -d 2 -p tcp -e 1098 -c 2 -a 0 -i 5 -k MAC 
- -t 5.048318013 -s 1 -d 2 -p tcp -e 1098 -c 2 -a 0 -i 5 -k MAC
h -t 5.048318013 -s 1 -d 2 -p tcp -e 1098 -c 2 -a 0 -i 5 -k MAC
r -t 5.057102313 -s 2 -d 2 -p tcp -e 1040 -c 2 -a 0 -i 5 -k MAC
+ -t 5.057112313 -s 2 -d -1 -p ACK -e 38 -c 2 -a 0 -i 0 -k MAC 
- -t 5.057112313 -s 2 -d -1 -p ACK -e 38 -c 2 -a 0 -i 0 -k MAC
h -t 5.057112313 -s 2 -d -1 -p ACK -e 38 -c 2 -a 0 -i 0 -k MAC
r -t 5.057127313 -s 2 -d 2 -p tcp -e 1040 -c 2 -a 0 -i 5 -k AGT
+ -t 5.057127313 -s 2 -d -1 -p ack -e 40 -c 2 -a 0 -i 10 -k AGT 
- -t 5.057127313 -s 2 -d -1 -p ack -e 40 -c 2 -a 0 -i 10 -k AGT
h -t 5.057127313 -s 2 -d -1 -p ack -e 40 -c 2 -a 0 -i 10 -k AGT
+ -t 5.057127313 -s 2 -d 0 -p ack -e 40 -c 2 -a 0 -i 10 -k RTR 
- -t 5.057127313 -s 2 -d 0 -p ack -e 40 -c 2 -a 0 -i 10 -k RTR
h -t 5.057127313 -s 2 -d 0 -p ack -e 40 -c 2 -a 0 -i 10 -k RTR
r -t 5.057416613 -s 1 -d -1 -p ACK -e 38 -c 2 -a 0 -i 0 -k MAC
+ -t 5.057666313 -s 2 -d -1 -p RTS -e 44 -c 2 -a 0 -i 0 -k MAC 
- -t 5.057666313 -s 2 -d -1 -p RTS -e 44 -c 2 -a 0 -i 0 -k MAC
h -t 5.057666313 -s 2 -d -1 -p RTS -e 44 -c 2 -a 0 -i 0 -k MAC
r -t 5.058018737 -s 0 -d -1 -p RTS -e 44 -c 2 -a 0 -i 0 -k MAC
+ -t 5.058028737 -s 0 -d -1 -p CTS -e 38 -c 2 -a 0 -i 0 -k MAC 
- -t 5.058028737 -s 0 -d -1 -p CTS -e 38 -c 2 -a 0 -i 0 -k MAC
h -t 5.058028737 -s 0 -d -1 -p CTS -e 38 -c 2 -a 0 -i 0 -k MAC
r -t 5.058333161 -s 2 -d -1 -p CTS -e 38 -c 2 -a 0 -i 0 -k MAC
+ -t 5.058343161 -s 2 -d 0 -p ack -e 98 -c 2 -a 0 -i 10 -k MAC 
- -t 5.058343161 -s 2 -d 0 -p ack -e 98 -c 2 -a 0 -i 10 -k MAC
h -t 5.058343161 -s 2 -d 0 -p ack -e 98 -c 2 -a 0 -i 10 -k MAC
r -t 5.059127586 -s 0 -d 0 -p ack -e 40 -c 2 -a 0 -i 10 -k MAC
+ -t 5.059137586 -s 0 -d -1 -p ACK -e 38 -c 2 -a 0 -i 0 -k MAC 
- -t 5.059137586 -s 0 -d -1 -p ACK -e 38 -c 2 -a 0 -i 0 -k MAC
h -t 5.059137586 -s 0 -d -1 -p ACK -e 38 -c 2 -a 0 -i 0 -k MAC
r -t 5.059152586 -s 0 -d 0 -p ack -e 40 -c 2 -a 0 -i 10 -k AGT
+ -t 5.059152586 -s 1 -d -1 -p tcp -e 1040 -c 2 -a 0 -i 11 -k AGT 
- -t 5.059152586 -s 1 -d -1 -p tcp -e 1040 -c 2 -a 0 -i 11 -k AGT
h -t 5.059152586 -s 1 -d -1 -p tcp -e 1040 -c 2 -a 0 -i 11 -k AGT
+ -t 5.059152586 -s 1 -d -1 -p tcp -e 1040 -c 2 -a 0 -i 12 -k AGT 
- -t 5.059152586 -s 1 -d -1 -p tcp -e 1040 -c 2 -a 0 -i 12 -k AGT
h -t 5.059152586 -s 1 -d -1 -p tcp -e 1040 -c 2 -a 0 -i 12 -k AGT
+ -t 5.059152586 -s 1 -d 2 -p tcp -e 1040 -c 2 -a 0 -i 11 -k RTR 
- -t 5.059152586 -s 1 -d 2 -p tcp -e 1040 -c 2 -a 0 -i 11 -k RTR
h -t 5.059152586 -s 1 -d 2 -p tcp -e 1040 -c 2 -a 0 -i 11 -k RTR
+ -t 5.059152586 -s 1 -d 2 -p tcp -e 1040 -c 2 -a 0 -i 12 -k RTR 
- -t 5.059152586 -s 1 -d 2 -p tcp -e 1040 -c 2 -a 0 -i 12 -k RTR
h -t 5.059152586 -s 1 -d 2 -p tcp -e 1040 -c 2 -a 0 -i 12 -k RTR
r -t 5.059442010 -s 2 -d -1 -p ACK -e 38 -c 2 -a 0 -i 0 -k MAC
+ -t 5.059871886 -s 1 -d -1 -p RTS -e 44 -c 2 -a 0 -i 0 -k MAC 
- -t 5.059871886 -s 1 -d -1 -p RTS -e 44 -c 2 -a 0 -i 0 -k MAC
h -t 5.059871886 -s 1 -d -1 -p RTS -e 44 -c 2 -a 0 -i 0 -k MAC
r -t 5.060224186 -s 2 -d -1 -p RTS -e 44 -c 2 -a 0 -i 0 -k MAC
+ -t 5.060234186 -s 2 -d -1 -p CTS -e 38 -c 2 -a 0 -i 0 -k MAC 
- -t 5.060234186 -s 2 -d -1 -p CTS -e 38 -c 2 -a 0 -i 0 -k MAC
h -t 5.060234186 -s 2 -d -1 -p CTS -e 38 -c 2 -a 0 -i 0 -k MAC
r -t 5.060538486 -s 1 -d -1 -p CTS -e 38 -c 2 -a 0 -i 0 -k MAC
+ -t 5.060548486 -s 1 -d 2 -p tcp -e 1098 -c 2 -a 0 -i 6 -k MAC 
- -t 5.060548486 -s 1 -d 2 -p tcp -e 1098 -c 2 -a 0 -i 6 -k MAC
h -t 5.060548486 -s 1 -d 2 -p tcp -e 1098 -c 2 -a 0 -i 6 -k MAC
r -t 5.069332786 -s 2 -d 2 -p tcp -e 1040 -c 2 -a 0 -i 6 -k MAC
+ -t 5.069342786 -s 2 -d -1 -p ACK -e 38 -c 2 -a 0 -i 0 -k MAC 
- -t 5.069342786 -s 2 -d -1 -p ACK -e 38 -c 2 -a 0 -i 0 -k MAC
h -t 5.069342786 -s 2 -d -1 -p ACK -e 38 -c 2 -a 0 -i 0 -k MAC
r -t 5.069357786 -s 2 -d 2 -p tcp -e 1040 -c 2 -a 0 -i 6 -k AGT
+ -t 5.069357786 -s 2 -d -1 -p ack -e 40 -c 2 -a 0 -i 13 -k AGT 
- -t 5.069357786 -s 2 -d -1 -p ack -e 40 -c 2 -a 0 -i 13 -k AGT
h -t 5.069357786 -s 2 -d -1 -p ack -e 40 -c 2 -a 0 -i 13 -k AGT
+ -t 5.069357786 -s 2 -d 0 -p ack -e 40 -c 2 -a 0 -i 13 -k RTR 
- -t 5.069357786 -s 2 -d 0 -p ack -e 40 -c 2 -a 0 -i 13 -k RTR
h -t 5.069357786 -s 2 -d 0 -p ack -e 40 -c 2 -a 0 -i 13 -k RTR
r -t 5.069647086 -s 1 -d -1 -p ACK -e 38 -c 2 -a 0 -i 0 -k MAC
+ -t 5.069816786 -s 2 -d -1 -p RTS -e 44 -c 2 -a 0 -i 0 -k MAC 
- -t 5.069816786 -s 2 -d -1 -p RTS -e 44 -c 2 -a 0 -i 0 -k MAC
h -t 5.069816786 -s 2 -d -1 -p RTS -e 44 -c 2 -a 0 -i 0 -k MAC
r -t 5.070169210 -s 0 -d -1 -p RTS -e 44 -c 2 -a 0 -i 0 -k MAC
+ -t 5.070179210 -s 0 -d -1 -p CTS -e 38 -c 2 -a 0 -i 0 -k MAC 
- -t 5.070179210 -s 0 -d -1 -p CTS -e 38 -c 2 -a 0 -i 0 -k MAC
h -t 5.070179210 -s 0 -d -1 -p CTS -e 38 -c 2 -a 0 -i 0 -k MAC
r -t 5.070483634 -s 2 -d -1 -p CTS -e 38 -c 2 -a 0 -i 0 -k MAC
+ -t 5.070493634 -s 2 -d 0 -p ack -e 98 -c 2 -a 0 -i 13 -k MAC 
- -t 5.070493634 -s 2 -d 0 -p ack -e 98 -c 2 -a 0 -i 13 -k MAC
h -t 5.070493634 -s 2 -d 0 -p ack -e 98 -c 2 -a 0 -i 13 -k MAC
r -t 5.071278058 -s 0 -d 0 -p ack -e 40 -c 2 -a 0 -i 13 -k MAC
+ -t 5.071288058 -s 0 -d -1 -p ACK -e 38 -c 2 -a 0 -i 0 -k MAC 
- -t 5.071288058 -s 0 -d -1 -p ACK -e 38 -c 2 -a 0 -i 0 -k MAC
h -t 5.071288058 -s 0 -d -1 -p ACK -e 38 -c 2 -a 0 -i 0 -k MAC
r -t 5.071303058 -s 0 -d 0 -p ack -e 40 -c 2 -a 0 -i 13 -k AGT
+ -t 5.071303058 -s 1 -d -1 -p tcp -e 1040 -c 2 -a 0 -i 14 -k AGT 
- -t 5.071303058 -s 1 -d -1 -p tcp -e 1040 -c 2 -a 0 -i 14 -k AGT
h -t 5.071303058 -s 1 -d -1 -p tcp -e 1040 -c 2 -a 0 -i 14 -k AGT
+ -t 5.071303058 -s 1 -d -1 -p tcp -e 1040 -c 2 -a 0 -i 15 -k AGT 
- -t 5.071303058 -s 1 -d -1 -p tcp -e 1040 -c 2 -a 0 -i 15 -k AGT
h -t 5.071303058 -s 1 -d -1 -p tcp -e 1040 -c 2 -a 0 -i 15 -k AGT
+ -t 5.071303058 -s 1 -d 2 -p tcp -e 1040 -c 2 -a 0 -i 14 -k RTR 
- -t 5.071303058 -s 1 -d 2 -p tcp -e 1040 -c 2 -a 0 -i 14 -k RTR
h -t 5.071303058 -s 1 -d 2 -p tcp -e 1040 -c 2 -a 0 -i 14 -k RTR
+ -t 5.071303058 -s 1 -d 2 -p tcp -e 1040 -c 2 -a 0 -i 15 -k RTR 