V -t * -v 1.0a5 -a 0
A -t * -n 1 -p 0 -o 0x7fffffff -c 30 -a 1
A -t * -h 1 -m 1073741823 -s 0
n -t * -a 4 -s 4 -S UP -v circle -c black -i black
n -t * -a 0 -s 0 -S UP -v circle -c black -i black
n -t * -a 5 -s 5 -S UP -v circle -c black -i black
n -t * -a 1 -s 1 -S UP -v circle -c black -i black
n -t * -a 2 -s 2 -S UP -v circle -c black -i black
n -t * -a 3 -s 3 -S UP -v circle -c black -i black
l -t * -s 2 -d 0 -S UP -r 1500000 -D 0.0050000000000000001 -c black -o left-up
l -t * -s 2 -d 1 -S UP -r 1500000 -D 0.0050000000000000001 -c black -o left-down
l -t * -s 3 -d 4 -S UP -r 1500000 -D 0.0050000000000000001 -c black -o right-up
l -t * -s 3 -d 5 -S UP -r 1500000 -D 0.0050000000000000001 -c black -o right-down
l -t * -s 2 -d 3 -S UP -r 1500000 -D 0.0050000000000000001 -c black -o right
+ -t 0.2 -s 0 -d 2 -p tcp -e 40 -c 0 -i 0 -a 0 -x {0.0 5.0 0 ------- null}
- -t 0.2 -s 0 -d 2 -p tcp -e 40 -c 0 -i 0 -a 0 -x {0.0 5.0 0 ------- null}
h -t 0.2 -s 0 -d 2 -p tcp -e 40 -c 0 -i 0 -a 0 -x {0.0 5.0 -1 ------- null}
r -t 0.205213333333333 -s 0 -d 2 -p tcp -e 40 -c 0 -i 0 -a 0 -x {0.0 5.0 0 ------- null}
+ -t 0.205213333333333 -s 2 -d 3 -p tcp -e 40 -c 0 -i 0 -a 0 -x {0.0 5.0 0 ------- null}
- -t 0.205213333333333 -s 2 -d 3 -p tcp -e 40 -c 0 -i 0 -a 0 -x {0.0 5.0 0 ------- null}
h -t 0.205213333333333 -s 2 -d 3 -p tcp -e 40 -c 0 -i 0 -a 0 -x {0.0 5.0 -1 ------- null}
r -t 0.210426666666667 -s 2 -d 3 -p tcp -e 40 -c 0 -i 0 -a 0 -x {0.0 5.0 0 ------- null}
+ -t 0.210426666666667 -s 3 -d 5 -p tcp -e 40 -c 0 -i 0 -a 0 -x {0.0 5.0 0 ------- null}
- -t 0.210426666666667 -s 3 -d 5 -p tcp -e 40 -c 0 -i 0 -a 0 -x {0.0 5.0 0 ------- null}
h -t 0.210426666666667 -s 3 -d 5 -p tcp -e 40 -c 0 -i 0 -a 0 -x {0.0 5.0 -1 ------- null}
r -t 0.21564 -s 3 -d 5 -p tcp -e 40 -c 0 -i 0 -a 0 -x {0.0 5.0 0 ------- null}
+ -t 0.21564 -s 5 -d 3 -p ack -e 40 -c 0 -i 1 -a 0 -x {5.0 0.0 0 ------- null}
- -t 0.21564 -s 5 -d 3 -p ack -e 40 -c 0 -i 1 -a 0 -x {5.0 0.0 0 ------- null}
h -t 0.21564 -s 5 -d 3 -p ack -e 40 -c 0 -i 1 -a 0 -x {5.0 0.0 -1 ------- null}
r -t 0.220853333333333 -s 5 -d 3 -p ack -e 40 -c 0 -i 1 -a 0 -x {5.0 0.0 0 ------- null}
+ -t 0.220853333333333 -s 3 -d 2 -p ack -e 40 -c 0 -i 1 -a 0 -x {5.0 0.0 0 ------- null}
- -t 0.220853333333333 -s 3 -d 2 -p ack -e 40 -c 0 -i 1 -a 0 -x {5.0 0.0 0 ------- null}
h -t 0.220853333333333 -s 3 -d 2 -p ack -e 40 -c 0 -i 1 -a 0 -x {5.0 0.0 -1 ------- null}
r -t 0.226066666666667 -s 3 -d 2 -p ack -e 40 -c 0 -i 1 -a 0 -x {5.0 0.0 0 ------- null}
+ -t 0.226066666666667 -s 2 -d 0 -p ack -e 40 -c 0 -i 1 -a 0 -x {5.0 0.0 0 ------- null}
- -t 0.226066666666667 -s 2 -d 0 -p ack -e 40 -c 0 -i 1 -a 0 -x {5.0 0.0 0 ------- null}
h -t 0.226066666666667 -s 2 -d 0 -p ack -e 40 -c 0 -i 1 -a 0 -x {5.0 0.0 -1 ------- null}
r -t 0.23128 -s 2 -d 0 -p ack -e 40 -c 0 -i 1 -a 0 -x {5.0 0.0 0 ------- null}
+ -t 0.23128 -s 0 -d 2 -p tcp -e 1040 -c 0 -i 2 -a 0 -x {0.0 5.0 1 ------- null}
- -t 0.23128 -s 0 -d 2 -p tcp -e 1040 -c 0 -i 2 -a 0 -x {0.0 5.0 1 ------- null}
h -t 0.23128 -s 0 -d 2 -p tcp -e 1040 -c 0 -i 2 -a 0 -x {0.0 5.0 -1 ------- null}
+ -t 0.23128 -s 0 -d 2 -p tcp -e 1040 -c 0 -i 3 -a 0 -x {0.0 5.0 2 ------- null}
- -t 0.236826666666667 -s 0 -d 2 -p tcp -e 1040 -c 0 -i 3 -a 0 -x {0.0 5.0 2 ------- null}
h -t 0.236826666666667 -s 0 -d 2 -p tcp -e 1040 -c 0 -i 3 -a 0 -x {0.0 5.0 -1 ------- null}
r -t 0.241826666666667 -s 0 -d 2 -p tcp -e 1040 -c 0 -i 2 -a 0 -x {0.0 5.0 1 ------- null}
+ -t 0.241826666666667 -s 2 -d 3 -p tcp -e 1040 -c 0 -i 2 -a 0 -x {0.0 5.0 1 ------- null}
- -t 0.241826666666667 -s 2 -d 3 -p tcp -e 1040 -c 0 -i 2 -a 0 -x {0.0 5.0 1 ------- null}
h -t 0.241826666666667 -s 2 -d 3 -p tcp -e 1040 -c 0 -i 2 -a 0 -x {0.0 5.0 -1 ------- null}
r -t 0.247373333333333 -s 0 -d 2 -p tcp -e 1040 -c 0 -i 3 -a 0 -x {0.0 5.0 2 ------- null}
+ -t 0.247373333333333 -s 2 -d 3 -p tcp -e 1040 -c 0 -i 3 -a 0 -x {0.0 5.0 2 ------- null}
- -t 0.247373333333333 -s 2 -d 3 -p tcp -e 1040 -c 0 -i 3 -a 0 -x {0.0 5.0 2 ------- null}
h -t 0.247373333333333 -s 2 -d 3 -p tcp -e 1040 -c 0 -i 3 -a 0 -x {0.0 5.0 -1 ------- null}
r -t 0.252373333333333 -s 2 -d 3 -p tcp -e 1040 -c 0 -i 2 -a 0 -x {0.0 5.0 1 ------- null}
+ -t 0.252373333333333 -s 3 -d 5 -p tcp -e 1040 -c 0 -i 2 -a 0 -x {0.0 5.0 1 ------- null}
- -t 0.252373333333333 -s 3 -d 5 -p tcp -e 1040 -c 0 -i 2 -a 0 -x {0.0 5.0 1 ------- null}
h -t 0.252373333333333 -s 3 -d 5 -p tcp -e 1040 -c 0 -i 2 -a 0 -x {0.0 5.0 -1 ------- null}
r -t 0.25792 -s 2 -d 3 -p tcp -e 1040 -c 0 -i 3 -a 0 -x {0.0 5.0 2 ------- null}
+ -t 0.25792 -s 3 -d 5 -p tcp -e 1040 -c 0 -i 3 -a 0 -x {0.0 5.0 2 ------- null}
- -t 0.25792 -s 3 -d 5 -p tcp -e 1040 -c 0 -i 3 -a 0 -x {0.0 5.0 2 ------- null}
h -t 0.25792 -s 3 -d 5 -p tcp -e 1040 -c 0 -i 3 -a 0 -x {0.0 5.0 -1 ------- null}
r -t 0.26292 -s 3 -d 5 -p tcp -e 1040 -c 0 -i 2 -a 0 -x {0.0 5.0 1 ------- null}
+ -t 0.26292 -s 5 -d 3 -p ack -e 40 -c 0 -i 4 -a 0 -x {5.0 0.0 1 ------- null}
- -t 0.26292 -s 5 -d 3 -p ack -e 40 -c 0 -i 4 -a 0 -x {5.0 0.0 1 ------- null}
h -t 0.26292 -s 5 -d 3 -p ack -e 40 -c 0 -i 4 -a 0 -x {5.0 0.0 -1 ------- null}
r -t 0.268133333333333 -s 5 -d 3 -p ack -e 40 -c 0 -i 4 -a 0 -x {5.0 0.0 1 ------- null}
+ -t 0.268133333333333 -s 3 -d 2 -p ack -e 40 -c 0 -i 4 -a 0 -x {5.0 0.0 1 ------- null}
- -t 0.268133333333333 -s 3 -d 2 -p ack -e 40 -c 0 -i 4 -a 0 -x {5.0 0.0 1 ------- null}
h -t 0.268133333333333 -s 3 -d 2 -p ack -e 40 -c 0 -i 4 -a 0 -x {5.0 0.0 -1 ------- null}
r -t 0.268466666666667 -s 3 -d 5 -p tcp -e 1040 -c 0 -i 3 -a 0 -x {0.0 5.0 2 ------- null}
+ -t 0.268466666666667 -s 5 -d 3 -p ack -e 40 -c 0 -i 5 -a 0 -x {5.0 0.0 2 ------- null}
- -t 0.268466666666667 -s 5 -d 3 -p ack -e 40 -c 0 -i 5 -a 0 -x {5.0 0.0 2 ------- null}
h -t 0.268466666666667 -s 5 -d 3 -p ack -e 40 -c 0 -i 5 -a 0 -x {5.0 0.0 -1 ------- null}
r -t 0.273346666666667 -s 3 -d 2 -p ack -e 40 -c 0 -i 4 -a 0 -x {5.0 0.0 1 ------- null}
+ -t 0.273346666666667 -s 2 -d 0 -p ack -e 40 -c 0 -i 4 -a 0 -x {5.0 0.0 1 ------- null}
- -t 0.273346666666667 -s 2 -d 0 -p ack -e 40 -c 0 -i 4 -a 0 -x {5.0 0.0 1 ------- null}
h -t 0.273346666666667 -s 2 -d 0 -p ack -e 40 -c 0 -i 4 -a 0 -x {5.0 0.0 -1 ------- null}
r -t 0.27368 -s 5 -d 3 -p ack -e 40 -c 0 -i 5 -a 0 -x {5.0 0.0 2 ------- null}
+ -t 0.27368 -s 3 -d 2 -p ack -e 40 -c 0 -i 5 -a 0 -x {5.0 0.0 2 ------- null}
- -t 0.27368 -s 3 -d 2 -p ack -e 40 -c 0 -i 5 -a 0 -x {5.0 0.0 2 ------- null}
h -t 0.27368 -s 3 -d 2 -p ack -e 40 -c 0 -i 5 -a 0 -x {5.0 0.0 -1 ------- null}
r -t 0.27856 -s 2 -d 0 -p ack -e 40 -c 0 -i 4 -a 0 -x {5.0 0.0 1 ------- null}
+ -t 0.27856 -s 0 -d 2 -p tcp -e 1040 -c 0 -i 6 -a 0 -x {0.0 5.0 3 ------- null}
- -t 0.27856 -s 0 -d 2 -p tcp -e 1040 -c 0 -i 6 -a 0 -x {0.0 5.0 3 ------- null}
h -t 0.27856 -s 0 -d 2 -p tcp -e 1040 -c 0 -i 6 -a 0 -x {0.0 5.0 -1 ------- null}
+ -t 0.27856 -s 0 -d 2 -p tcp -e 1040 -c 0 -i 7 -a 0 -x {0.0 5.0 4 ------- null}
r -t 0.278893333333333 -s 3 -d 2 -p ack -e 40 -c 0 -i 5 -a 0 -x {5.0 0.0 2 ------- null}
+ -t 0.278893333333333 -s 2 -d 0 -p ack -e 40 -c 0 -i 5 -a 0 -x {5.0 0.0 2 ------- null}
- -t 0.278893333333333 -s 2 -d 0 -p ack -e 40 -c 0 -i 5 -a 0 -x {5.0 0.0 2 ------- null}
h -t 0.278893333333333 -s 2 -d 0 -p ack -e 40 -c 0 -i 5 -a 0 -x {5.0 0.0 -1 ------- null}
- -t 0.284106666666667 -s 0 -d 2 -p tcp -e 1040 -c 0 -i 7 -a 0 -x {0.0 5.0 4 ------- null}
h -t 0.284106666666667 -s 0 -d 2 -p tcp -e 1040 -c 0 -i 7 -a 0 -x {0.0 5.0 -1 ------- null}
r -t 0.284106666666667 -s 2 -d 0 -p ack -e 40 -c 0 -i 5 -a 0 -x {5.0 0.0 2 ------- null}
+ -t 0.284106666666667 -s 0 -d 2 -p tcp -e 1040 -c 0 -i 8 -a 0 -x {0.0 5.0 5 ------- null}
+ -t 0.284106666666667 -s 0 -d 2 -p tcp -e 1040 -c 0 -i 9 -a 0 -x {0.0 5.0 6 ------- null}
r -t 0.289106666666667 -s 0 -d 2 -p tcp -e 1040 -c 0 -i 6 -a 0 -x {0.0 5.0 3 ------- null}
+ -t 0.289106666666667 -s 2 -d 3 -p tcp -e 1040 -c 0 -i 6 -a 0 -x {0.0 5.0 3 ------- null}
- -t 0.289106666666667 -s 2 -d 3 -p tcp -e 1040 -c 0 -i 6 -a 0 -x {0.0 5.0 3 ------- null}
h -t 0.289106666666667 -s 2 -d 3 -p tcp -e 1040 -c 0 -i 6 -a 0 -x {0.0 5.0 -1 ------- null}
- -t 0.289653333333333 -s 0 -d 2 -p tcp -e 1040 -c 0 -i 8 -a 0 -x {0.0 5.0 5 ------- null}
h -t 0.289653333333333 -s 0 -d 2 -p tcp -e 1040 -c 0 -i 8 -a 0 -x {0.0 5.0 -1 ------- null}
r -t 0.294653333333333 -s 0 -d 2 -p tcp -e 1040 -c 0 -i 7 -a 0 -x {0.0 5.0 4 ------- null}
+ -t 0.294653333333333 -s 2 -d 3 -p tcp -e 1040 -c 0 -i 7 -a 0 -x {0.0 5.0 4 ------- null}
- -t 0.294653333333333 -s 2 -d 3 -p tcp -e 1040 -c 0 -i 7 -a 0 -x {0.0 5.0 4 ------- null}
h -t 0.294653333333333 -s 2 -d 3 -p tcp -e 1040 -c 0 -i 7 -a 0 -x {0.0 5.0 -1 ------- null}
- -t 0.2952 -s 0 -d 2 -p tcp -e 1040 -c 0 -i 9 -a 0 -x {0.0 5.0 6 ------- null}
h -t 0.2952 -s 0 -d 2 -p tcp -e 1040 -c 0 -i 9 -a 0 -x {0.0 5.0 -1 ------- null}
r -t 0.299653333333333 -s 2 -d 3 -p tcp -e 1040 -c 0 -i 6 -a 0 -x {0.0 5.0 3 ------- null}
+ -t 0.299653333333333 -s 3 -d 5 -p tcp -e 1040 -c 0 -i 6 -a 0 -x {0.0 5.0 3 ------- null}
- -t 0.299653333333333 -s 3 -d 5 -p tcp -e 1040 -c 0 -i 6 -a 0 -x {0.0 5.0 3 ------- null}
h -t 0.299653333333333 -s 3 -d 5 -p tcp -e 1040 -c 0 -i 6 -a 0 -x {0.0 5.0 -1 ------- null}
r -t 0.3002 -s 0 -d 2 -p tcp -e 1040 -c 0 -i 8 -a 0 -x {0.0 5.0 5 ------- null}
+ -t 0.3002 -s 2 -d 3 -p tcp -e 1040 -c 0 -i 8 -a 0 -x {0.0 5.0 5 ------- null}
- -t 0.3002 -s 2 -d 3 -p tcp -e 1040 -c 0 -i 8 -a 0 -x {0.0 5.0 5 ------- null}
h -t 0.3002 -s 2 -d 3 -p tcp -e 1040 -c 0 -i 8 -a 0 -x {0.0 5.0 -1 ------- null}
r -t 0.3052 -s 2 -d 3 -p tcp -e 1040 -c 0 -i 7 -a 0 -x {0.0 5.0 4 ------- null}
+ -t 0.3052 -s 3 -d 5 -p tcp -e 1040 -c 0 -i 7 -a 0 -x {0.0 5.0 4 ------- null}
- -t 0.3052 -s 3 -d 5 -p tcp -e 1040 -c 0 -i 7 -a 0 -x {0.0 5.0 4 ------- null}
h -t 0.3052 -s 3 -d 5 -p tcp -e 1040 -c 0 -i 7 -a 0 -x {0.0 5.0 -1 ------- null}
r -t 0.305746666666667 -s 0 -d 2 -p tcp -e 1040 -c 0 -i 9 -a 0 -x {0.0 5.0 6 ------- null}
+ -t 0.305746666666667 -s 2 -d 3 -p tcp -e 1040 -c 0 -i 9 -a 0 -x {0.0 5.0 6 ------- null}
- -t 0.305746666666667 -s 2 -d 3 -p tcp -e 1040 -c 0 -i 9 -a 0 -x {0.0 5.0 6 ------- null}
h -t 0.305746666666667 -s 2 -d 3 -p tcp -e 1040 -c 0 -i 9 -a 0 -x {0.0 5.0 -1 ------- null}
r -t 0.3102 -s 3 -d 5 -p tcp -e 1040 -c 0 -i 6 -a 0 -x {0.0 5.0 3 ------- null}
+ -t 0.3102 -s 5 -d 3 -p ack -e 40 -c 0 -i 10 -a 0 -x {5.0 0.0 3 ------- null}
- -t 0.3102 -s 5 -d 3 -p ack -e 40 -c 0 -i 10 -a 0 -x {5.0 0.0 3 ------- null}
h -t 0.3102 -s 5 -d 3 -p ack -e 40 -c 0 -i 10 -a 0 -x {5.0 0.0 -1 ------- null}
r -t 0.310746666666667 -s 2 -d 3 -p tcp -e 1040 -c 0 -i 8 -a 0 -x {0.0 5.0 5 ------- null}
+ -t 0.310746666666667 -s 3 -d 5 -p tcp -e 1040 -c 0 -i 8 -a 0 -x {0.0 5.0 5 ------- null}
- -t 0.310746666666667 -s 3 -d 5 -p tcp -e 1040 -c 0 -i 8 -a 0 -x {0.0 5.0 5 ------- null}
h -t 0.310746666666667 -s 3 -d 5 -p tcp -e 1040 -c 0 -i 8 -a 0 -x {0.0 5.0 -1 ------- null}
r -t 0.315413333333333 -s 5 -d 3 -p ack -e 40 -c 0 -i 10 -a 0 -x {5.0 0.0 3 ------- null}
+ -t 0.315413333333333 -s 3 -d 2 -p ack -e 40 -c 0 -i 10 -a 0 -x {5.0 0.0 3 ------- null}
- -t 0.315413333333333 -s 3 -d 2 -p ack -e 40 -c 0 -i 10 -a 0 -x {5.0 0.0 3 ------- null}
h -t 0.315413333333333 -s 3 -d 2 -p ack -e 40 -c 0 -i 10 -a 0 -x {5.0 0.0 -1 ------- null}
r -t 0.315746666666667 -s 3 -d 5 -p tcp -e 1040 -c 0 -i 7 -a 0 -x {0.0 5.0 4 ------- null}
+ -t 0.315746666666667 -s 5 -d 3 -p ack -e 40 -c 0 -i 11 -a 0 -x {5.0 0.0 4 ------- null}
- -t 0.315746666666667 -s 5 -d 3 -p ack -e 40 -c 0 -i 11 -a 0 -x {5.0 0.0 4 ------- null}
h -t 0.315746666666667 -s 5 -d 3 -p ack -e 40 -c 0 -i 11 -a 0 -x {5.0 0.0 -1 ------- null}
r -t 0.316293333333333 -s 2 -d 3 -p tcp -e 1040 -c 0 -i 9 -a 0 -x {0.0 5.0 6 ------- null}
+ -t 0.316293333333333 -s 3 -d 5 -p tcp -e 1040 -c 0 -i 9 -a 0 -x {0.0 5.0 6 ------- null}
- -t 0.316293333333333 -s 3 -d 5 -p tcp -e 1040 -c 0 -i 9 -a 0 -x {0.0 5.0 6 ------- null}
h -t 0.316293333333333 -s 3 -d 5 -p tcp -e 1040 -c 0 -i 9 -a 0 -x {0.0 5.0 -1 ------- null}
r -t 0.320626666666667 -s 3 -d 2 -p ack -e 40 -c 0 -i 10 -a 0 -x {5.0 0.0 3 ------- null}
+ -t 0.320626666666667 -s 2 -d 0 -p ack -e 40 -c 0 -i 10 -a 0 -x {5.0 0.0 3 ------- null}
- -t 0.320626666666667 -s 2 -d 0 -p ack -e 40 -c 0 -i 10 -a 0 -x {5.0 0.0 3 ------- null}
h -t 0.320626666666667 -s 2 -d 0 -p ack -e 40 -c 0 -i 10 -a 0 -x {5.0 0.0 -1 ------- null}
r -t 0.32096 -s 5 -d 3 -p ack -e 40 -c 0 -i 11 -a 0 -x {5.0 0.0 4 ------- null}
+ -t 0.32096 -s 3 -d 2 -p ack -e 40 -c 0 -i 11 -a 0 -x {5.0 0.0 4 ------- null}
- -t 0.32096 -s 3 -d 2 -p ack -e 40 -c 0 -i 11 -a 0 -x {5.0 0.0 4 ------- null}
h -t 0.32096 -s 3 -d 2 -p ack -e 40 -c 0 -i 11 -a 0 -x {5.0 0.0 -1 ------- null}
r -t 0.321293333333333 -s 3 -d 5 -p tcp -e 1040 -c 0 -i 8 -a 0 -x {0.0 5.0 5 ------- null}
+ -t 0.321293333333333 -s 5 -d 3 -p ack -e 40 -c 0 -i 12 -a 0 -x {5.0 0.0 5 ------- null}
- -t 0.321293333333333 -s 5 -d 3 -p ack -e 40 -c 0 -i 12 -a 0 -x {5.0 0.0 5 ------- null}
h -t 0.321293333333333 -s 5 -d 3 -p ack -e 40 -c 0 -i 12 -a 0 -x {5.0 0.0 -1 ------- null}
r -t 0.32584 -s 2 -d 0 -p ack -e 40 -c 0 -i 10 -a 0 -x {5.0 0.0 3 ------- null}
+ -t 0.32584 -s 0 -d 2 -p tcp -e 1040 -c 0 -i 13 -a 0 -x {0.0 5.0 7 ------- null}
- -t 0.32584 -s 0 -d 2 -p tcp -e 1040 -c 0 -i 13 -a 0 -x {0.0 5.0 7 ------- null}
h -t 0.32584 -s 0 -d 2 -p tcp -e 1040 -c 0 -i 13 -a 0 -x {0.0 5.0 -1 ------- null}
+ -t 0.32584 -s 0 -d 2 -p tcp -e 1040 -c 0 -i 14 -a 0 -x {0.0 5.0 8 ------- null}
r -t 0.326173333333333 -s 3 -d 2 -p ack -e 40 -c 0 -i 11 -a 0 -x {5.0 0.0 4 ------- null}
+ -t 0.326173333333333 -s 2 -d 0 -p ack -e 40 -c 0 -i 11 -a 0 -x {5.0 0.0 4 ------- null}
- -t 0.326173333333333 -s 2 -d 0 -p ack -e 40 -c 0 -i 11 -a 0 -x {5.0 0.0 4 ------- null}
h -t 0.326173333333333 -s 2 -d 0 -p ack -e 40 -c 0 -i 11 -a 0 -x {5.0 0.0 -1 ------- null}
r -t 0.326506666666667 -s 5 -d 3 -p ack -e 40 -c 0 -i 12 -a 0 -x {5.0 0.0 5 ------- null}
+ -t 0.326506666666667 -s 3 -d 2 -p ack -e 40 -c 0 -i 12 -a 0 -x {5.0 0.0 5 ------- null}
- -t 0.326506666666667 -s 3 -d 2 -p ack -e 40 -c 0 -i 12 -a 0 -x {5.0 0.0 5 ------- null}
h -t 0.326506666666667 -s 3 -d 2 -p ack -e 40 -c 0 -i 12 -a 0 -x {5.0 0.0 -1 ------- null}
r -t 0.32684 -s 3 -d 5 -p tcp -e 1040 -c 0 -i 9 -a 0 -x {0.0 5.0 6 ------- null}
+ -t 0.32684 -s 5 -d 3 -p ack -e 40 -c 0 -i 15 -a 0 -x {5.0 0.0 6 ------- null}
- -t 0.32684 -s 5 -d 3 -p ack -e 40 -c 0 -i 15 -a 0 -x {5.0 0.0 6 ------- null}
h -t 0.32684 -s 5 -d 3 -p ack -e 40 -c 0 -i 15 -a 0 -x {5.0 0.0 -1 ------- null}
- -t 0.331386666666667 -s 0 -d 2 -p tcp -e 1040 -c 0 -i 14 -a 0 -x {0.0 5.0 8 ------- null}
h -t 0.331386666666667 -s 0 -d 2 -p tcp -e 1040 -c 0 -i 14 -a 0 -x {0.0 5.0 -1 ------- null}
r -t 0.331386666666667 -s 2 -d 0 -p ack -e 40 -c 0 -i 11 -a 0 -x {5.0 0.0 4 ------- null}
+ -t 0.331386666666667 -s 0 -d 2 -p tcp -e 1040 -c 0 -i 16 -a 0 -x {0.0 5.0 9 ------- null}
+ -t 0.331386666666667 -s 0 -d 2 -p tcp -e 1040 -c 0 -i 17 -a 0 -x {0.0 5.0 10 ------- null}
r -t 0.33172 -s 3 -d 2 -p ack -e 40 -c 0 -i 12 -a 0 -x {5.0 0.0 5 ------- null}
+ -t 0.33172 -s 2 -d 0 -p ack -e 40 -c 0 -i 12 -a 0 -x {5.0 0.0 5 ------- null}
- -t 0.33172 -s 2 -d 0 -p ack -e 40 -c 0 -i 12 -a 0 -x {5.0 0.0 5 ------- null}
h -t 0.33172 -s 2 -d 0 -p ack -e 40 -c 0 -i 12 -a 0 -x {5.0 0.0 -1 ------- null}
r -t 0.332053333333333 -s 5 -d 3 -p ack -e 40 -c 0 -i 15 -a 0 -x {5.0 0.0 6 ------- null}
+ -t 0.332053333333333 -s 3 -d 2 -p ack -e 40 -c 0 -i 15 -a 0 -x {5.0 0.0 6 ------- null}
- -t 0.332053333333333 -s 3 -d 2 -p ack -e 40 -c 0 -i 15 -a 0 -x {5.0 0.0 6 ------- null}
h -t 0.332053333333333 -s 3 -d 2 -p ack -e 40 -c 0 -i 15 -a 0 -x {5.0 0.0 -1 ------- null}
r -t 0.336386666666667 -s 0 -d 2 -p tcp -e 1040 -c 0 -i 13 -a 0 -x {0.0 5.0 7 ------- null}
+ -t 0.336386666666667 -s 2 -d 3 -p tcp -e 1040 -c 0 -i 13 -a 0 -x {0.0 5.0 7 ------- null}
- -t 0.336386666666667 -s 2 -d 3 -p tcp -e 1040 -c 0 -i 13 -a 0 -x {0.0 5.0 7 ------- null}
h -t 0.336386666666667 -s 2 -d 3 -p tcp -e 1040 -c 0 -i 13 -a 0 -x {0.0 5.0 -1 ------- null}
- -t 0.336933333333333 -s 0 -d 2 -p tcp -e 1040 -c 0 -i 16 -a 0 -x {0.0 5.0 9 ------- null}
h -t 0.336933333333333 -s 0 -d 2 -p tcp -e 1040 -c 0 -i 16 -a 0 -x {0.0 5.0 -1 ------- null}
r -t 0.336933333333333 -s 2 -d 0 -p ack -e 40 -c 0 -i 12 -a 0 -x {5.0 0.0 5 ------- null}
+ -t 0.336933333333333 -s 0 -d 2 -p tcp -e 1040 -c 0 -i 18 -a 0 -x {0.0 5.0 11 ------- null}
+ -t 0.336933333333333 -s 0 -d 2 -p tcp -e 1040 -c 0 -i 19 -a 0 -x {0.0 5.0 12 ------- null}
r -t 0.337266666666667 -s 3 -d 2 -p ack -e 40 -c 0 -i 15 -a 0 -x {5.0 0.0 6 ------- null}
+ -t 0.337266666666667 -s 2 -d 0 -p ack -e 40 -c 0 -i 15 -a 0 -x {5.0 0.0 6 ------- null}
- -t 0.337266666666667 -s 2 -d 0 -p ack -e 40 -c 0 -i 15 -a 0 -x {5.0 0.0 6 ------- null}
h -t 0.337266666666667 -s 2 -d 0 -p ack -e 40 -c 0 -i 15 -a 0 -x {5.0 0.0 -1 ------- null}
r -t 0.341933333333333 -s 0 -d 2 -p tcp -e 1040 -c 0 -i 14 -a 0 -x {0.0 5.0 8 ------- null}
+ -t 0.341933333333333 -s 2 -d 3 -p tcp -e 1040 -c 0 -i 14 -a 0 -x {0.0 5.0 8 ------- null}
- -t 0.341933333333333 -s 2 -d 3 -p tcp -e 1040 -c 0 -i 14 -a 0 -x {0.0 5.0 8 ------- null}
h -t 0.341933333333333 -s 2 -d 3 -p tcp -e 1040 -c 0 -i 14 -a 0 -x {0.0 5.0 -1 ------- null}
- -t 0.34248 -s 0 -d 2 -p tcp -e 1040 -c 0 -i 17 -a 0 -x {0.0 5.0 10 ------- null}
h -t 0.34248 -s 0 -d 2 -p tcp -e 1040 -c 0 -i 17 -a 0 -x {0.0 5.0 -1 ------- null}
r -t 0.34248 -s 2 -d 0 -p ack -e 40 -c 0 -i 15 -a 0 -x {5.0 0.0 6 ------- null}
+ -t 0.34248 -s 0 -d 2 -p tcp -e 1040 -c 0 -i 20 -a 0 -x {0.0 5.0 13 ------- null}
+ -t 0.34248 -s 0 -d 2 -p tcp -e 1040 -c 0 -i 21 -a 0 -x {0.0 5.0 14 ------- null}
r -t 0.346933333333333 -s 2 -d 3 -p tcp -e 1040 -c 0 -i 13 -a 0 -x {0.0 5.0 7 ------- null}
+ -t 0.346933333333333 -s 3 -d 5 -p tcp -e 1040 -c 0 -i 13 -a 0 -x {0.0 5.0 7 ------- null}
- -t 0.346933333333333 -s 3 -d 5 -p tcp -e 1040 -c 0 -i 13 -a 0 -x {0.0 5.0 7 ------- null}
h -t 0.346933333333333 -s 3 -d 5 -p tcp -e 1040 -c 0 -i 13 -a 0 -x {0.0 5.0 -1 ------- null}
r -t 0.34748 -s 0 -d 2 -p tcp -e 1040 -c 0 -i 16 -a 0 -x {0.0 5.0 9 ------- null}
+ -t 0.34748 -s 2 -d 3 -p tcp -e 1040 -c 0 -i 16 -a 0 -x {0.0 5.0 9 ------- null}
- -t 0.34748 -s 2 -d 3 -p tcp -e 1040 -c 0 -i 16 -a 0 -x {0.0 5.0 9 ------- null}
h -t 0.34748 -s 2 -d 3 -p tcp -e 1040 -c 0 -i 16 -a 0 -x {0.0 5.0 -1 ------- null}
- -t 0.348026666666667 -s 0 -d 2 -p tcp -e 1040 -c 0 -i 18 -a 0 -x {0.0 5.0 11 ------- null}
h -t 0.348026666666667 -s 0 -d 2 -p tcp -e 1040 -c 0 -i 18 -a 0 -x {0.0 5.0 -1 ------- null}
r -t 0.35248 -s 2 -d 3 -p tcp -e 1040 -c 0 -i 14 -a 0 -x {0.0 5.0 8 ------- null}
+ -t 0.35248 -s 3 -d 5 -p tcp -e 1040 -c 0 -i 14 -a 0 -x {0.0 5.0 8 ------- null}
- -t 0.35248 -s 3 -d 5 -p tcp -e 1040 -c 0 -i 14 -a 0 -x {0.0 5.0 8 ------- null}
h -t 0.35248 -s 3 -d 5 -p tcp -e 1040 -c 0 -i 14 -a 0 -x {0.0 5.0 -1 ------- null}
r -t 0.353026666666667 -s 0 -d 2 -p tcp -e 1040 -c 0 -i 17 -a 0 -x {0.0 5.0 10 ------- null}
+ -t 0.353026666666667 -s 2 -d 3 -p tcp -e 1040 -c 0 -i 17 -a 0 -x {0.0 5.0 10 ------- null}
- -t 0.353026666666667 -s 2 -d 3 -p tcp -e 1040 -c 0 -i 17 -a 0 -x {0.0 5.0 10 ------- null}
h -t 0.353026666666667 -s 2 -d 3 -p tcp -e 1040 -c 0 -i 17 -a 0 -x {0.0 5.0 -1 ------- null}
- -t 0.353573333333333 -s 0 -d 2 -p tcp -e 1040 -c 0 -i 19 -a 0 -x {0.0 5.0 12 ------- null}
h -t 0.353573333333333 -s 0 -d 2 -p tcp -e 1040 -c 0 -i 19 -a 0 -x {0.0 5.0 -1 ------- null}
r -t 0.35748 -s 3 -d 5 -p tcp -e 1040 -c 0 -i 13 -a 0 -x {0.0 5.0 7 ------- null}
+ -t 0.35748 -s 5 -d 3 -p ack -e 40 -c 0 -i 22 -a 0 -x {5.0 0.0 7 ------- null}
- -t 0.35748 -s 5 -d 3 -p ack -e 40 -c 0 -i 22 -a 0 -x {5.0 0.0 7 ------- null}
h -t 0.35748 -s 5 -d 3 -p ack -e 40 -c 0 -i 22 -a 0 -x {5.0 0.0 -1 ------- null}
r -t 0.358026666666667 -s 2 -d 3 -p tcp -e 1040 -c 0 -i 16 -a 0 -x {0.0 5.0 9 ------- null}
+ -t 0.358026666666667 -s 3 -d 5 -p tcp -e 1040 -c 0 -i 16 -a 0 -x {0.0 5.0 9 ------- null}
- -t 0.358026666666667 -s 3 -d 5 -p tcp -e 1040 -c 0 -i 16 -a 0 -x {0.0 5.0 9 ------- null}
h -t 0.358026666666667 -s 3 -d 5 -p tcp -e 1040 -c 0 -i 16 -a 0 -x {0.0 5.0 -1 ------- null}
r -t 0.358573333333333 -s 0 -d 2 -p tcp -e 1040 -c 0 -i 18 -a 0 -x {0.0 5.0 11 ------- null}
+ -t 0.358573333333333 -s 2 -d 3 -p tcp -e 1040 -c 0 -i 18 -a 0 -x {0.0 5.0 11 ------- null}
- -t 0.358573333333333 -s 2 -d 3 -p tcp -e 1040 -c 0 -i 18 -a 0 -x {0.0 5.0 11 ------- null}
h -t 0.358573333333333 -s 2 -d 3 -p tcp -e 1040 -c 0 -i 18 -a 0 -x {0.0 5.0 -1 ------- null}
- -t 0.35912 -s 0 -d 2 -p tcp -e 1040 -c 0 -i 20 -a 0 -x {0.0 5.0 13 ------- null}
h -t 0.35912 -s 0 -d 2 -p tcp -e 1040 -c 0 -i 20 -a 0 -x {0.0 5.0 -1 ------- null}
r -t 0.362693333333333 -s 5 -d 3 -p ack -e 40 -c 0 -i 22 -a 0 -x {5.0 0.0 7 ------- null}
+ -t 0.362693333333333 -s 3 -d 2 -p ack -e 40 -c 0 -i 22 -a 0 -x {5.0 0.0 7 ------- null}
- -t 0.362693333333333 -s 3 -d 2 -p ack -e 40 -c 0 -i 22 -a 0 -x {5.0 0.0 7 ------- null}
h -t 0.362693333333333 -s 3 -d 2 -p ack -e 40 -c 0 -i 22 -a 0 -x {5.0 0.0 -1 ------- null}
r -t 0.363026666666667 -s 3 -d 5 -p tcp -e 1040 -c 0 -i 14 -a 0 -x {0.0 5.0 8 ------- null}
+ -t 0.363026666666667 -s 5 -d 3 -p ack -e 40 -c 0 -i 23 -a 0 -x {5.0 0.0 8 ------- null}
- -t 0.363026666666667 -s 5 -d 3 -p ack -e 40 -c 0 -i 23 -a 0 -x {5.0 0.0 8 ------- null}
h -t 0.363026666666667 -s 5 -d 3 -p ack -e 40 -c 0 -i 23 -a 0 -x {5.0 0.0 -1 ------- null}
r -t 0.363573333333333 -s 2 -d 3 -p tcp -e 1040 -c 0 -i 17 -a 0 -x {0.0 5.0 10 ------- null}
+ -t 0.363573333333333 -s 3 -d 5 -p tcp -e 1040 -c 0 -i 17 -a 0 -x {0.0 5.0 10 ------- null}
- -t 0.363573333333333 -s 3 -d 5 -p tcp -e 1040 -c 0 -i 17 -a 0 -x {0.0 5.0 10 ------- null}
h -t 0.363573333333333 -s 3 -d 5 -p tcp -e 1040 -c 0 -i 17 -a 0 -x {0.0 5.0 -1 ------- null}
r -t 0.36412 -s 0 -d 2 -p tcp -e 1040 -c 0 -i 19 -a 0 -x {0.0 5.0 12 ------- null}
+ -t 0.36412 -s 2 -d 3 -p tcp -e 1040 -c 0 -i 19 -a 0 -x {0.0 5.0 12 ------- null}
- -t 0.36412 -s 2 -d 3 -p tcp -e 1040 -c 0 -i 19 -a 0 -x {0.0 5.0 12 ------- null}
h -t 0.36412 -s 2 -d 3 -p tcp -e 1040 -c 0 -i 19 -a 0 -x {0.0 5.0 -1 ------- null}
- -t 0.364666666666667 -s 0 -d 2 -p tcp -e 1040 -c 0 -i 21 -a 0 -x {0.0 5.0 14 ------- null}
h -t 0.364666666666667 -s 0 -d 2 -p tcp -e 1040 -c 0 -i 21 -a 0 -x {0.0 5.0 -1 ------- null}
r -t 0.367906666666667 -s 3 -d 2 -p ack -e 40 -c 0 -i 22 -a 0 -x {5.0 0.0 7 ------- null}
+ -t 0.367906666666667 -s 2 -d 0 -p ack -e 40 -c 0 -i 22 -a 0 -x {5.0 0.0 7 ------- null}
- -t 0.367906666666667 -s 2 -d 0 -p ack -e 40 -c 0 -i 22 -a 0 -x {5.0 0.0 7 ------- null}
h -t 0.367906666666667 -s 2 -d 0 -p ack -e 40 -c 0 -i 22 -a 0 -x {5.0 0.0 -1 ------- null}
r -t 0.36824 -s 5 -d 3 -p ack -e 40 -c 0 -i 23 -a 0 -x {5.0 0.0 8 ------- null}
+ -t 0.36824 -s 3 -d 2 -p ack -e 40 -c 0 -i 23 -a 0 -x {5.0 0.0 8 ------- null}
- -t 0.36824 -s 3 -d 2 -p ack -e 40 -c 0 -i 23 -a 0 -x {5.0 0.0 8 ------- null}
h -t 0.36824 -s 3 -d 2 -p ack -e 40 -c 0 -i 23 -a 0 -x {5.0 0.0 -1 ------- null}
r -t 0.368573333333333 -s 3 -d 5 -p tcp -e 1040 -c 0 -i 16 -a 0 -x {0.0 5.0 9 ------- null}
+ -t 0.368573333333333 -s 5 -d 3 -p ack -e 40 -c 0 -i 24 -a 0 -x {5.0 0.0 9 ------- null}
- -t 0.368573333333333 -s 5 -d 3 -p ack -e 40 -c 0 -i 24 -a 0 -x {5.0 0.0 9 ------- null}
h -t 0.368573333333333 -s 5 -d 3 -p ack -e 40 -c 0 -i 24 -a 0 -x {5.0 0.0 -1 ------- null}
r -t 0.36912 -s 2 -d 3 -p tcp -e 1040 -c 0 -i 18 -a 0 -x {0.0 5.0 11 ------- null}
+ -t 0.36912 -s 3 -d 5 -p tcp -e 1040 -c 0 -i 18 -a 0 -x {0.0 5.0 11 ------- null}
- -t 0.36912 -s 3 -d 5 -p tcp -e 1040 -c 0 -i 18 -a 0 -x {0.0 5.0 11 ------- null}
h -t 0.36912 -s 3 -d 5 -p tcp -e 1040 -c 0 -i 18 -a 0 -x {0.0 5.0 -1 ------- null}
r -t 0.369666666666667 -s 0 -d 2 -p tcp -e 1040 -c 0 -i 20 -a 0 -x {0.0 5.0 13 ------- null}
+ -t 0.369666666666667 -s 2 -d 3 -p tcp -e 1040 -c 0 -i 20 -a 0 -x {0.0 5.0 13 ------- null}
- -t 0.369666666666667 -s 2 -d 3 -p tcp -e 1040 -c 0 -i 20 -a 0 -x {0.0 5.0 13 ------- null}
h -t 0.369666666666667 -s 2 -d 3 -p tcp -e 1040 -c 0 -i 20 -a 0 -x {0.0 5.0 -1 ------- null}
r -t 0.37312 -s 2 -d 0 -p ack -e 40 -c 0 -i 22 -a 0 -x {5.0 0.0 7 ------- null}
+ -t 0.37312 -s 0 -d 2 -p tcp -e 1040 -c 0 -i 25 -a 0 -x {0.0 5.0 15 ------- null}
- -t 0.37312 -s 0 -d 2 -p tcp -e 1040 -c 0 -i 25 -a 0 -x {0.0 5.0 15 ------- null}
h -t 0.37312 -s 0 -d 2 -p tcp -e 1040 -c 0 -i 25 -a 0 -x {0.0 5.0 -1 ------- null}
+ -t 0.37312 -s 0 -d 2 -p tcp -e 1040 -c 0 -i 26 -a 0 -x {0.0 5.0 16 ------- null}
r -t 0.373453333333333 -s 3 -d 2 -p ack -e 40 -c 0 -i 23 -a 0 -x {5.0 0.0 8 ------- null}
+ -t 0.373453333333333 -s 2 -d 0 -p ack -e 40 -c 0 -i 23 -a 0 -x {5.0 0.0 8 ------- null}
- -t 0.373453333333333 -s 2 -d 0 -p ack -e 40 -c 0 -i 23 -a 0 -x {5.0 0.0 8 ------- null}
h -t 0.373453333333333 -s 2 -d 0 -p ack -e 40 -c 0 -i 23 -a 0 -x {5.0 0.0 -1 ------- null}
r -t 0.373786666666667 -s 5 -d 3 -p ack -e 40 -c 0 -i 24 -a 0 -x {5.0 0.0 9 ------- null}
+ -t 0.373786666666667 -s 3 -d 2 -p ack -e 40 -c 0 -i 24 -a 0 -x {5.0 0.0 9 ------- null}
- -t 0.373786666666667 -s 3 -d 2 -p ack -e 40 -c 0 -i 24 -a 0 -x {5.0 0.0 9 ------- null}
h -t 0.373786666666667 -s 3 -d 2 -p ack -e 40 -c 0 -i 24 -a 0 -x {5.0 0.0 -1 ------- null}
r -t 0.37412 -s 3 -d 5 -p tcp -e 1040 -c 0 -i 17 -a 0 -x {0.0 5.0 10 ------- null}
+ -t 0.37412 -s 5 -d 3 -p ack -e 40 -c 0 -i 27 -a 0 -x {5.0 0.0 10 ------- null}
- -t 0.37412 -s 5 -d 3 -p ack -e 40 -c 0 -i 27 -a 0 -x {5.0 0.0 10 ------- null}
h -t 0.37412 -s 5 -d 3 -p ack -e 40 -c 0 -i 27 -a 0 -x {5.0 0.0 -1 ------- null}
r -t 0.374666666666667 -s 2 -d 3 -p tcp -e 1040 -c 0 -i 19 -a 0 -x {0.0 5.0 12 ------- null}
+ -t 0.374666666666667 -s 3 -d 5 -p tcp -e 1040 -c 0 -i 19 -a 0 -x {0.0 5.0 12 ------- null}
- -t 0.374666666666667 -s 3 -d 5 -p tcp -e 1040 -c 0 -i 19 -a 0 -x {0.0 5.0 12 ------- null}
h -t 0.374666666666667 -s 3 -d 5 -p tcp -e 1040 -c 0 -i 19 -a 0 -x {0.0 5.0 -1 ------- null}
r -t 0.375213333333333 -s 0 -d 2 -p tcp -e 1040 -c 0 -i 21 -a 0 -x {0.0 5.0 14 ------- null}
+ -t 0.375213333333333 -s 2 -d 3 -p tcp -e 1040 -c 0 -i 21 -a 0 -x {0.0 5.0 14 ------- null}
- -t 0.375213333333333 -s 2 -d 3 -p tcp -e 1040 -c 0 -i 21 -a 0 -x {0.0 5.0 14 ------- null}
h -t 0.375213333333333 -s 2 -d 3 -p tcp -e 1040 -c 0 -i 21 -a 0 -x {0.0 5.0 -1 ------- null}
- -t 0.378666666666667 -s 0 -d 2 -p tcp -e 1040 -c 0 -i 26 -a 0 -x {0.0 5.0 16 ------- null}
h -t 0.378666666666667 -s 0 -d 2 -p tcp -e 1040 -c 0 -i 26 -a 0 -x {0.0 5.0 -1 ------- null}
r -t 0.378666666666667 -s 2 -d 0 -p ack -e 40 -c 0 -i 23 -a 0 -x {5.0 0.0 8 ------- null}
+ -t 0.378666666666667 -s 0 -d 2 -p tcp -e 1040 -c 0 -i 28 -a 0 -x {0.0 5.0 17 ------- null}
+ -t 0.378666666666667 -s 0 -d 2 -p tcp -e 1040 -c 0 -i 29 -a 0 -x {0.0 5.0 18 ------- null}
r -t 0.379 -s 3 -d 2 -p ack -e 40 -c 0 -i 24 -a 0 -x {5.0 0.0 9 ------- null}
+ -t 0.379 -s 2 -d 0 -p ack -e 40 -c 0 -i 24 -a 0 -x {5.0 0.0 9 ------- null}
- -t 0.379 -s 2 -d 0 -p ack -e 40 -c 0 -i 24 -a 0 -x {5.0 0.0 9 ------- null}
h -t 0.379 -s 2 -d 0 -p ack -e 40 -c 0 -i 24 -a 0 -x {5.0 0.0 -1 ------- null}
r -t 0.379333333333333 -s 5 -d 3 -p ack -e 40 -c 0 -i 27 -a 0 -x {5.0 0.0 10 ------- null}
+ -t 0.379333333333333 -s 3 -d 2 -p ack -e 40 -c 0 -i 27 -a 0 -x {5.0 0.0 10 ------- null}
- -t 0.379333333333333 -s 3 -d 2 -p ack -e 40 -c 0 -i 27 -a 0 -x {5.0 0.0 10 ------- null}
h -t 0.379333333333333 -s 3 -d 2 -p ack -e 40 -c 0 -i 27 -a 0 -x {5.0 0.0 -1 ------- null}
r -t 0.379666666666667 -s 3 -d 5 -p tcp -e 1040 -c 0 -i 18 -a 0 -x {0.0 5.0 11 ------- null}
+ -t 0.379666666666667 -s 5 -d 3 -p ack -e 40 -c 0 -i 30 -a 0 -x {5.0 0.0 11 ------- null}
- -t 0.379666666666667 -s 5 -d 3 -p ack -e 40 -c 0 -i 30 -a 0 -x {5.0 0.0 11 ------- null}
h -t 0.379666666666667 -s 5 -d 3 -p ack -e 40 -c 0 -i 30 -a 0 -x {5.0 0.0 -1 ------- null}
r -t 0.380213333333333 -s 2 -d 3 -p tcp -e 1040 -c 0 -i 20 -a 0 -x {0.0 5.0 13 ------- null}
+ -t 0.380213333333333 -s 3 -d 5 -p tcp -e 1040 -c 0 -i 20 -a 0 -x {0.0 5.0 13 ------- null}
- -t 0.380213333333333 -s 3 -d 5 -p tcp -e 1040 -c 0 -i 20 -a 0 -x {0.0 5.0 13 ------- null}
h -t 0.380213333333333 -s 3 -d 5 -p tcp -e 1040 -c 0 -i 20 -a 0 -x {0.0 5.0 -1 ------- null}
r -t 0.383666666666667 -s 0 -d 2 -p tcp -e 1040 -c 0 -i 25 -a 0 -x {0.0 5.0 15 ------- null}
+ -t 0.383666666666667 -s 2 -d 3 -p tcp -e 1040 -c 0 -i 25 -a 0 -x {0.0 5.0 15 ------- null}
- -t 0.383666666666667 -s 2 -d 3 -p tcp -e 1040 -c 0 -i 25 -a 0 -x {0.0 5.0 15 ------- null}
h -t 0.383666666666667 -s 2 -d 3 -p tcp -e 1040 -c 0 -i 25 -a 0 -x {0.0 5.0 -1 ------- null}
- -t 0.384213333333333 -s 0 -d 2 -p tcp -e 1040 -c 0 -i 28 -a 0 -x {0.0 5.0 17 ------- null}
h -t 0.384213333333333 -s 0 -d 2 -p tcp -e 1040 -c 0 -i 28 -a 0 -x {0.0 5.0 -1 ------- null}
r -t 0.384213333333333 -s 2 -d 0 -p ack -e 40 -c 0 -i 24 -a 0 -x {5.0 0.0 9 ------- null}
+ -t 0.384213333333333 -s 0 -d 2 -p tcp -e 1040 -c 0 -i 31 -a 0 -x {0.0 5.0 19 ------- null}
+ -t 0.384213333333333 -s 0 -d 2 -p tcp -e 1040 -c 0 -i 32 -a 0 -x {0.0 5.0 20 ------- null}
r -t 0.384546666666667 -s 3 -d 2 -p ack -e 40 -c 0 -i 27 -a 0 -x {5.0 0.0 10 ------- null}
+ -t 0.384546666666667 -s 2 -d 0 -p ack -e 40 -c 0 -i 27 -a 0 -x {5.0 0.0 10 ------- null}
- -t 0.384546666666667 -s 2 -d 0 -p ack -e 40 -c 0 -i 27 -a 0 -x {5.0 0.0 10 ------- null}
h -t 0.384546666666667 -s 2 -d 0 -p ack -e 40 -c 0 -i 27 -a 0 -x {5.0 0.0 -1 ------- null}
r -t 0.38488 -s 5 -d 3 -p ack -e 40 -c 0 -i 30 -a 0 -x {5.0 0.0 11 ------- null}
+ -t 0.38488 -s 3 -d 2 -p ack -e 40 -c 0 -i 30 -a 0 -x {5.0 0.0 11 ------- null}
- -t 0.38488 -s 3 -d 2 -p ack -e 40 -c 0 -i 30 -a 0 -x {5.0 0.0 11 ------- null}
h -t 0.38488 -s 3 -d 2 -p ack -e 40 -c 0 -i 30 -a 0 -x {5.0 0.0 -1 ------- null}
r -t 0.385213333333333 -s 3 -d 5 -p tcp -e 1040 -c 0 -i 19 -a 0 -x {0.0 5.0 12 ------- null}
+ -t 0.385213333333333 -s 5 -d 3 -p ack -e 40 -c 0 -i 33 -a 0 -x {5.0 0.0 12 ------- null}
- -t 0.385213333333333 -s 5 -d 3 -p ack -e 40 -c 0 -i 33 -a 0 -x {5.0 0.0 12 ------- null}
h -t 0.385213333333333 -s 5 -d 3 -p ack -e 40 -c 0 -i 33 -a 0 -x {5.0 0.0 -1 ------- null}
r -t 0.38576 -s 2 -d 3 -p tcp -e 1040 -c 0 -i 21 -a 0 -x {0.0 5.0 14 ------- null}