+ 0.2 0 2 tcp 40 ------- 0 0.0 5.0 0 0
- 0.2 0 2 tcp 40 ------- 0 0.0 5.0 0 0
r 0.205213 0 2 tcp 40 ------- 0 0.0 5.0 0 0
+ 0.205213 2 3 tcp 40 ------- 0 0.0 5.0 0 0
- 0.205213 2 3 tcp 40 ------- 0 0.0 5.0 0 0
r 0.210427 2 3 tcp 40 ------- 0 0.0 5.0 0 0
+ 0.210427 3 5 tcp 40 ------- 0 0.0 5.0 0 0
- 0.210427 3 5 tcp 40 ------- 0 0.0 5.0 0 0
r 0.21564 3 5 tcp 40 ------- 0 0.0 5.0 0 0
+ 0.21564 5 3 ack 40 ------- 0 5.0 0.0 0 1
- 0.21564 5 3 ack 40 ------- 0 5.0 0.0 0 1
r 0.220853 5 3 ack 40 ------- 0 5.0 0.0 0 1
+ 0.220853 3 2 ack 40 ------- 0 5.0 0.0 0 1
- 0.220853 3 2 ack 40 ------- 0 5.0 0.0 0 1
r 0.226067 3 2 ack 40 ------- 0 5.0 0.0 0 1
+ 0.226067 2 0 ack 40 ------- 0 5.0 0.0 0 1
- 0.226067 2 0 ack 40 ------- 0 5.0 0.0 0 1
r 0.23128 2 0 ack 40 ------- 0 5.0 0.0 0 1
+ 0.23128 0 2 tcp 1040 ------- 0 0.0 5.0 1 2
- 0.23128 0 2 tcp 1040 ------- 0 0.0 5.0 1 2
+ 0.23128 0 2 tcp 1040 ------- 0 0.0 5.0 2 3
- 0.236827 0 2 tcp 1040 ------- 0 0.0 5.0 2 3
r 0.241827 0 2 tcp 1040 ------- 0 0.0 5.0 1 2
+ 0.241827 2 3 tcp 1040 ------- 0 0.0 5.0 1 2
- 0.241827 2 3 tcp 1040 ------- 0 0.0 5.0 1 2
r 0.247373 0 2 tcp 1040 ------- 0 0.0 5.0 2 3
+ 0.247373 2 3 tcp 1040 ------- 0 0.0 5.0 2 3
- 0.247373 2 3 tcp 1040 ------- 0 0.0 5.0 2 3
r 0.252373 2 3 tcp 1040 ------- 0 0.0 5.0 1 2
+ 0.252373 3 5 tcp 1040 ------- 0 0.0 5.0 1 2
- 0.252373 3 5 tcp 1040 ------- 0 0.0 5.0 1 2
r 0.25792 2 3 tcp 1040 ------- 0 0.0 5.0 2 3
+ 0.25792 3 5 tcp 1040 ------- 0 0.0 5.0 2 3
- 0.25792 3 5 tcp 1040 ------- 0 0.0 5.0 2 3
r 0.26292 3 5 tcp 1040 ------- 0 0.0 5.0 1 2
+ 0.26292 5 3 ack 40 ------- 0 5.0 0.0 1 4
- 0.26292 5 3 ack 40 ------- 0 5.0 0.0 1 4
r 0.268133 5 3 ack 40 ------- 0 5.0 0.0 1 4
+ 0.268133 3 2 ack 40 ------- 0 5.0 0.0 1 4
- 0.268133 3 2 ack 40 ------- 0 5.0 0.0 1 4
r 0.268467 3 5 tcp 1040 ------- 0 0.0 5.0 2 3
+ 0.268467 5 3 ack 40 ------- 0 5.0 0.0 2 5
- 0.268467 5 3 ack 40 ------- 0 5.0 0.0 2 5
r 0.273347 3 2 ack 40 ------- 0 5.0 0.0 1 4
+ 0.273347 2 0 ack 40 ------- 0 5.0 0.0 1 4
- 0.273347 2 0 ack 40 ------- 0 5.0 0.0 1 4
r 0.27368 5 3 ack 40 ------- 0 5.0 0.0 2 5
+ 0.27368 3 2 ack 40 ------- 0 5.0 0.0 2 5
- 0.27368 3 2 ack 40 ------- 0 5.0 0.0 2 5
r 0.27856 2 0 ack 40 ------- 0 5.0 0.0 1 4
+ 0.27856 0 2 tcp 1040 ------- 0 0.0 5.0 3 6
- 0.27856 0 2 tcp 1040 ------- 0 0.0 5.0 3 6
+ 0.27856 0 2 tcp 1040 ------- 0 0.0 5.0 4 7
r 0.278893 3 2 ack 40 ------- 0 5.0 0.0 2 5
+ 0.278893 2 0 ack 40 ------- 0 5.0 0.0 2 5
- 0.278893 2 0 ack 40 ------- 0 5.0 0.0 2 5
- 0.284107 0 2 tcp 1040 ------- 0 0.0 5.0 4 7
r 0.284107 2 0 ack 40 ------- 0 5.0 0.0 2 5
+ 0.284107 0 2 tcp 1040 ------- 0 0.0 5.0 5 8
+ 0.284107 0 2 tcp 1040 ------- 0 0.0 5.0 6 9
r 0.289107 0 2 tcp 1040 ------- 0 0.0 5.0 3 6
+ 0.289107 2 3 tcp 1040 ------- 0 0.0 5.0 3 6
- 0.289107 2 3 tcp 1040 ------- 0 0.0 5.0 3 6
- 0.289653 0 2 tcp 1040 ------- 0 0.0 5.0 5 8
r 0.294653 0 2 tcp 1040 ------- 0 0.0 5.0 4 7
+ 0.294653 2 3 tcp 1040 ------- 0 0.0 5.0 4 7
- 0.294653 2 3 tcp 1040 ------- 0 0.0 5.0 4 7
- 0.2952 0 2 tcp 1040 ------- 0 0.0 5.0 6 9
r 0.299653 2 3 tcp 1040 ------- 0 0.0 5.0 3 6
+ 0.299653 3 5 tcp 1040 ------- 0 0.0 5.0 3 6
- 0.299653 3 5 tcp 1040 ------- 0 0.0 5.0 3 6
r 0.3002 0 2 tcp 1040 ------- 0 0.0 5.0 5 8
+ 0.3002 2 3 tcp 1040 ------- 0 0.0 5.0 5 8
- 0.3002 2 3 tcp 1040 ------- 0 0.0 5.0 5 8
r 0.3052 2 3 tcp 1040 ------- 0 0.0 5.0 4 7
+ 0.3052 3 5 tcp 1040 ------- 0 0.0 5.0 4 7
- 0.3052 3 5 tcp 1040 ------- 0 0.0 5.0 4 7
r 0.305747 0 2 tcp 1040 ------- 0 0.0 5.0 6 9
+ 0.305747 2 3 tcp 1040 ------- 0 0.0 5.0 6 9
- 0.305747 2 3 tcp 1040 ------- 0 0.0 5.0 6 9
r 0.3102 3 5 tcp 1040 ------- 0 0.0 5.0 3 6
+ 0.3102 5 3 ack 40 ------- 0 5.0 0.0 3 10
- 0.3102 5 3 ack 40 ------- 0 5.0 0.0 3 10
r 0.310747 2 3 tcp 1040 ------- 0 0.0 5.0 5 8
+ 0.310747 3 5 tcp 1040 ------- 0 0.0 5.0 5 8
- 0.310747 3 5 tcp 1040 ------- 0 0.0 5.0 5 8
r 0.315413 5 3 ack 40 ------- 0 5.0 0.0 3 10
+ 0.315413 3 2 ack 40 ------- 0 5.0 0.0 3 10
- 0.315413 3 2 ack 40 ------- 0 5.0 0.0 3 10
r 0.315747 3 5 tcp 1040 ------- 0 0.0 5.0 4 7
+ 0.315747 5 3 ack 40 ------- 0 5.0 0.0 4 11
- 0.315747 5 3 ack 40 ------- 0 5.0 0.0 4 11
r 0.316293 2 3 tcp 1040 ------- 0 0.0 5.0 6 9
+ 0.316293 3 5 tcp 1040 ------- 0 0.0 5.0 6 9
- 0.316293 3 5 tcp 1040 ------- 0 0.0 5.0 6 9
r 0.320627 3 2 ack 40 ------- 0 5.0 0.0 3 10
+ 0.320627 2 0 ack 40 ------- 0 5.0 0.0 3 10
- 0.320627 2 0 ack 40 ------- 0 5.0 0.0 3 10
r 0.32096 5 3 ack 40 ------- 0 5.0 0.0 4 11
+ 0.32096 3 2 ack 40 ------- 0 5.0 0.0 4 11
- 0.32096 3 2 ack 40 ------- 0 5.0 0.0 4 11
r 0.321293 3 5 tcp 1040 ------- 0 0.0 5.0 5 8
+ 0.321293 5 3 ack 40 ------- 0 5.0 0.0 5 12
- 0.321293 5 3 ack 40 ------- 0 5.0 0.0 5 12
r 0.32584 2 0 ack 40 ------- 0 5.0 0.0 3 10
+ 0.32584 0 2 tcp 1040 ------- 0 0.0 5.0 7 13
- 0.32584 0 2 tcp 1040 ------- 0 0.0 5.0 7 13
+ 0.32584 0 2 tcp 1040 ------- 0 0.0 5.0 8 14
r 0.326173 3 2 ack 40 ------- 0 5.0 0.0 4 11
+ 0.326173 2 0 ack 40 ------- 0 5.0 0.0 4 11
- 0.326173 2 0 ack 40 ------- 0 5.0 0.0 4 11
r 0.326507 5 3 ack 40 ------- 0 5.0 0.0 5 12
+ 0.326507 3 2 ack 40 ------- 0 5.0 0.0 5 12
- 0.326507 3 2 ack 40 ------- 0 5.0 0.0 5 12
r 0.32684 3 5 tcp 1040 ------- 0 0.0 5.0 6 9
+ 0.32684 5 3 ack 40 ------- 0 5.0 0.0 6 15
- 0.32684 5 3 ack 40 ------- 0 5.0 0.0 6 15
- 0.331387 0 2 tcp 1040 ------- 0 0.0 5.0 8 14
r 0.331387 2 0 ack 40 ------- 0 5.0 0.0 4 11
+ 0.331387 0 2 tcp 1040 ------- 0 0.0 5.0 9 16
+ 0.331387 0 2 tcp 1040 ------- 0 0.0 5.0 10 17
r 0.33172 3 2 ack 40 ------- 0 5.0 0.0 5 12
+ 0.33172 2 0 ack 40 ------- 0 5.0 0.0 5 12
- 0.33172 2 0 ack 40 ------- 0 5.0 0.0 5 12
r 0.332053 5 3 ack 40 ------- 0 5.0 0.0 6 15
+ 0.332053 3 2 ack 40 ------- 0 5.0 0.0 6 15
- 0.332053 3 2 ack 40 ------- 0 5.0 0.0 6 15
r 0.336387 0 2 tcp 1040 ------- 0 0.0 5.0 7 13
+ 0.336387 2 3 tcp 1040 ------- 0 0.0 5.0 7 13
- 0.336387 2 3 tcp 1040 ------- 0 0.0 5.0 7 13
- 0.336933 0 2 tcp 1040 ------- 0 0.0 5.0 9 16
r 0.336933 2 0 ack 40 ------- 0 5.0 0.0 5 12
+ 0.336933 0 2 tcp 1040 ------- 0 0.0 5.0 11 18
+ 0.336933 0 2 tcp 1040 ------- 0 0.0 5.0 12 19
r 0.337267 3 2 ack 40 ------- 0 5.0 0.0 6 15
+ 0.337267 2 0 ack 40 ------- 0 5.0 0.0 6 15
- 0.337267 2 0 ack 40 ------- 0 5.0 0.0 6 15
r 0.341933 0 2 tcp 1040 ------- 0 0.0 5.0 8 14
+ 0.341933 2 3 tcp 1040 ------- 0 0.0 5.0 8 14
- 0.341933 2 3 tcp 1040 ------- 0 0.0 5.0 8 14
- 0.34248 0 2 tcp 1040 ------- 0 0.0 5.0 10 17
r 0.34248 2 0 ack 40 ------- 0 5.0 0.0 6 15
+ 0.34248 0 2 tcp 1040 ------- 0 0.0 5.0 13 20
+ 0.34248 0 2 tcp 1040 ------- 0 0.0 5.0 14 21
r 0.346933 2 3 tcp 1040 ------- 0 0.0 5.0 7 13
+ 0.346933 3 5 tcp 1040 ------- 0 0.0 5.0 7 13
- 0.346933 3 5 tcp 1040 ------- 0 0.0 5.0 7 13
r 0.34748 0 2 tcp 1040 ------- 0 0.0 5.0 9 16
+ 0.34748 2 3 tcp 1040 ------- 0 0.0 5.0 9 16
- 0.34748 2 3 tcp 1040 ------- 0 0.0 5.0 9 16
- 0.348027 0 2 tcp 1040 ------- 0 0.0 5.0 11 18
r 0.35248 2 3 tcp 1040 ------- 0 0.0 5.0 8 14
+ 0.35248 3 5 tcp 1040 ------- 0 0.0 5.0 8 14
- 0.35248 3 5 tcp 1040 ------- 0 0.0 5.0 8 14
r 0.353027 0 2 tcp 1040 ------- 0 0.0 5.0 10 17
+ 0.353027 2 3 tcp 1040 ------- 0 0.0 5.0 10 17
- 0.353027 2 3 tcp 1040 ------- 0 0.0 5.0 10 17
- 0.353573 0 2 tcp 1040 ------- 0 0.0 5.0 12 19
r 0.35748 3 5 tcp 1040 ------- 0 0.0 5.0 7 13
+ 0.35748 5 3 ack 40 ------- 0 5.0 0.0 7 22
- 0.35748 5 3 ack 40 ------- 0 5.0 0.0 7 22
r 0.358027 2 3 tcp 1040 ------- 0 0.0 5.0 9 16
+ 0.358027 3 5 tcp 1040 ------- 0 0.0 5.0 9 16
- 0.358027 3 5 tcp 1040 ------- 0 0.0 5.0 9 16
r 0.358573 0 2 tcp 1040 ------- 0 0.0 5.0 11 18
+ 0.358573 2 3 tcp 1040 ------- 0 0.0 5.0 11 18
- 0.358573 2 3 tcp 1040 ------- 0 0.0 5.0 11 18
- 0.35912 0 2 tcp 1040 ------- 0 0.0 5.0 13 20
r 0.362693 5 3 ack 40 ------- 0 5.0 0.0 7 22
+ 0.362693 3 2 ack 40 ------- 0 5.0 0.0 7 22
- 0.362693 3 2 ack 40 ------- 0 5.0 0.0 7 22
r 0.363027 3 5 tcp 1040 ------- 0 0.0 5.0 8 14
+ 0.363027 5 3 ack 40 ------- 0 5.0 0.0 8 23
- 0.363027 5 3 ack 40 ------- 0 5.0 0.0 8 23
r 0.363573 2 3 tcp 1040 ------- 0 0.0 5.0 10 17
+ 0.363573 3 5 tcp 1040 ------- 0 0.0 5.0 10 17
- 0.363573 3 5 tcp 1040 ------- 0 0.0 5.0 10 17
r 0.36412 0 2 tcp 1040 ------- 0 0.0 5.0 12 19
+ 0.36412 2 3 tcp 1040 ------- 0 0.0 5.0 12 19
- 0.36412 2 3 tcp 1040 ------- 0 0.0 5.0 12 19
- 0.364667 0 2 tcp 1040 ------- 0 0.0 5.0 14 21
r 0.367907 3 2 ack 40 ------- 0 5.0 0.0 7 22
+ 0.367907 2 0 ack 40 ------- 0 5.0 0.0 7 22
- 0.367907 2 0 ack 40 ------- 0 5.0 0.0 7 22
r 0.36824 5 3 ack 40 ------- 0 5.0 0.0 8 23
+ 0.36824 3 2 ack 40 ------- 0 5.0 0.0 8 23
- 0.36824 3 2 ack 40 ------- 0 5.0 0.0 8 23
r 0.368573 3 5 tcp 1040 ------- 0 0.0 5.0 9 16
+ 0.368573 5 3 ack 40 ------- 0 5.0 0.0 9 24
- 0.368573 5 3 ack 40 ------- 0 5.0 0.0 9 24
r 0.36912 2 3 tcp 1040 ------- 0 0.0 5.0 11 18
+ 0.36912 3 5 tcp 1040 ------- 0 0.0 5.0 11 18
- 0.36912 3 5 tcp 1040 ------- 0 0.0 5.0 11 18
r 0.369667 0 2 tcp 1040 ------- 0 0.0 5.0 13 20
+ 0.369667 2 3 tcp 1040 ------- 0 0.0 5.0 13 20
- 0.369667 2 3 tcp 1040 ------- 0 0.0 5.0 13 20
r 0.37312 2 0 ack 40 ------- 0 5.0 0.0 7 22
+ 0.37312 0 2 tcp 1040 ------- 0 0.0 5.0 15 25
- 0.37312 0 2 tcp 1040 ------- 0 0.0 5.0 15 25
+ 0.37312 0 2 tcp 1040 ------- 0 0.0 5.0 16 26
r 0.373453 3 2 ack 40 ------- 0 5.0 0.0 8 23
+ 0.373453 2 0 ack 40 ------- 0 5.0 0.0 8 23
- 0.373453 2 0 ack 40 ------- 0 5.0 0.0 8 23
r 0.373787 5 3 ack 40 ------- 0 5.0 0.0 9 24
+ 0.373787 3 2 ack 40 ------- 0 5.0 0.0 9 24
- 0.373787 3 2 ack 40 ------- 0 5.0 0.0 9 24
r 0.37412 3 5 tcp 1040 ------- 0 0.0 5.0 10 17
+ 0.37412 5 3 ack 40 ------- 0 5.0 0.0 10 27
- 0.37412 5 3 ack 40 ------- 0 5.0 0.0 10 27
r 0.374667 2 3 tcp 1040 ------- 0 0.0 5.0 12 19
+ 0.374667 3 5 tcp 1040 ------- 0 0.0 5.0 12 19
- 0.374667 3 5 tcp 1040 ------- 0 0.0 5.0 12 19
r 0.375213 0 2 tcp 1040 ------- 0 0.0 5.0 14 21
+ 0.375213 2 3 tcp 1040 ------- 0 0.0 5.0 14 21
- 0.375213 2 3 tcp 1040 ------- 0 0.0 5.0 14 21
- 0.378667 0 2 tcp 1040 ------- 0 0.0 5.0 16 26
r 0.378667 2 0 ack 40 ------- 0 5.0 0.0 8 23
+ 0.378667 0 2 tcp 1040 ------- 0 0.0 5.0 17 28
+ 0.378667 0 2 tcp 1040 ------- 0 0.0 5.0 18 29
r 0.379 3 2 ack 40 ------- 0 5.0 0.0 9 24
+ 0.379 2 0 ack 40 ------- 0 5.0 0.0 9 24
- 0.379 2 0 ack 40 ------- 0 5.0 0.0 9 24
r 0.379333 5 3 ack 40 ------- 0 5.0 0.0 10 27
+ 0.379333 3 2 ack 40 ------- 0 5.0 0.0 10 27
- 0.379333 3 2 ack 40 ------- 0 5.0 0.0 10 27
r 0.379667 3 5 tcp 1040 ------- 0 0.0 5.0 11 18
+ 0.379667 5 3 ack 40 ------- 0 5.0 0.0 11 30
- 0.379667 5 3 ack 40 ------- 0 5.0 0.0 11 30
r 0.380213 2 3 tcp 1040 ------- 0 0.0 5.0 13 20
+ 0.380213 3 5 tcp 1040 ------- 0 0.0 5.0 13 20
- 0.380213 3 5 tcp 1040 ------- 0 0.0 5.0 13 20
r 0.383667 0 2 tcp 1040 ------- 0 0.0 5.0 15 25
+ 0.383667 2 3 tcp 1040 ------- 0 0.0 5.0 15 25
- 0.383667 2 3 tcp 1040 ------- 0 0.0 5.0 15 25
- 0.384213 0 2 tcp 1040 ------- 0 0.0 5.0 17 28
r 0.384213 2 0 ack 40 ------- 0 5.0 0.0 9 24
+ 0.384213 0 2 tcp 1040 ------- 0 0.0 5.0 19 31
+ 0.384213 0 2 tcp 1040 ------- 0 0.0 5.0 20 32
r 0.384547 3 2 ack 40 ------- 0 5.0 0.0 10 27
+ 0.384547 2 0 ack 40 ------- 0 5.0 0.0 10 27
- 0.384547 2 0 ack 40 ------- 0 5.0 0.0 10 27
r 0.38488 5 3 ack 40 ------- 0 5.0 0.0 11 30
+ 0.38488 3 2 ack 40 ------- 0 5.0 0.0 11 30
- 0.38488 3 2 ack 40 ------- 0 5.0 0.0 11 30
r 0.385213 3 5 tcp 1040 ------- 0 0.0 5.0 12 19
+ 0.385213 5 3 ack 40 ------- 0 5.0 0.0 12 33
- 0.385213 5 3 ack 40 ------- 0 5.0 0.0 12 33
r 0.38576 2 3 tcp 1040 ------- 0 0.0 5.0 14 21
+ 0.38576 3 5 tcp 1040 ------- 0 0.0 5.0 14 21
- 0.38576 3 5 tcp 1040 ------- 0 0.0 5.0 14 21
r 0.389213 0 2 tcp 1040 ------- 0 0.0 5.0 16 26
+ 0.389213 2 3 tcp 1040 ------- 0 0.0 5.0 16 26
- 0.389213 2 3 tcp 1040 ------- 0 0.0 5.0 16 26
- 0.38976 0 2 tcp 1040 ------- 0 0.0 5.0 18 29
r 0.38976 2 0 ack 40 ------- 0 5.0 0.0 10 27
+ 0.38976 0 2 tcp 1040 ------- 0 0.0 5.0 21 34
+ 0.38976 0 2 tcp 1040 ------- 0 0.0 5.0 22 35
r 0.390093 3 2 ack 40 ------- 0 5.0 0.0 11 30
+ 0.390093 2 0 ack 40 ------- 0 5.0 0.0 11 30
- 0.390093 2 0 ack 40 ------- 0 5.0 0.0 11 30
r 0.390427 5 3 ack 40 ------- 0 5.0 0.0 12 33
+ 0.390427 3 2 ack 40 ------- 0 5.0 0.0 12 33
- 0.390427 3 2 ack 40 ------- 0 5.0 0.0 12 33
r 0.39076 3 5 tcp 1040 ------- 0 0.0 5.0 13 20
+ 0.39076 5 3 ack 40 ------- 0 5.0 0.0 13 36
- 0.39076 5 3 ack 40 ------- 0 5.0 0.0 13 36
r 0.394213 2 3 tcp 1040 ------- 0 0.0 5.0 15 25
+ 0.394213 3 5 tcp 1040 ------- 0 0.0 5.0 15 25
- 0.394213 3 5 tcp 1040 ------- 0 0.0 5.0 15 25
r 0.39476 0 2 tcp 1040 ------- 0 0.0 5.0 17 28
+ 0.39476 2 3 tcp 1040 ------- 0 0.0 5.0 17 28
- 0.39476 2 3 tcp 1040 ------- 0 0.0 5.0 17 28
- 0.395307 0 2 tcp 1040 ------- 0 0.0 5.0 19 31
r 0.395307 2 0 ack 40 ------- 0 5.0 0.0 11 30
+ 0.395307 0 2 tcp 1040 ------- 0 0.0 5.0 23 37
+ 0.395307 0 2 tcp 1040 ------- 0 0.0 5.0 24 38
r 0.39564 3 2 ack 40 ------- 0 5.0 0.0 12 33
+ 0.39564 2 0 ack 40 ------- 0 5.0 0.0 12 33
- 0.39564 2 0 ack 40 ------- 0 5.0 0.0 12 33
r 0.395973 5 3 ack 40 ------- 0 5.0 0.0 13 36
+ 0.395973 3 2 ack 40 ------- 0 5.0 0.0 13 36
- 0.395973 3 2 ack 40 ------- 0 5.0 0.0 13 36
r 0.396307 3 5 tcp 1040 ------- 0 0.0 5.0 14 21
+ 0.396307 5 3 ack 40 ------- 0 5.0 0.0 14 39
- 0.396307 5 3 ack 40 ------- 0 5.0 0.0 14 39
r 0.39976 2 3 tcp 1040 ------- 0 0.0 5.0 16 26
+ 0.39976 3 5 tcp 1040 ------- 0 0.0 5.0 16 26
- 0.39976 3 5 tcp 1040 ------- 0 0.0 5.0 16 26
r 0.400307 0 2 tcp 1040 ------- 0 0.0 5.0 18 29
+ 0.400307 2 3 tcp 1040 ------- 0 0.0 5.0 18 29
- 0.400307 2 3 tcp 1040 ------- 0 0.0 5.0 18 29
- 0.400853 0 2 tcp 1040 ------- 0 0.0 5.0 20 32
r 0.400853 2 0 ack 40 ------- 0 5.0 0.0 12 33
+ 0.400853 0 2 tcp 1040 ------- 0 0.0 5.0 25 40
+ 0.400853 0 2 tcp 1040 ------- 0 0.0 5.0 26 41
r 0.401187 3 2 ack 40 ------- 0 5.0 0.0 13 36
+ 0.401187 2 0 ack 40 ------- 0 5.0 0.0 13 36
- 0.401187 2 0 ack 40 ------- 0 5.0 0.0 13 36
r 0.40152 5 3 ack 40 ------- 0 5.0 0.0 14 39
+ 0.40152 3 2 ack 40 ------- 0 5.0 0.0 14 39
- 0.40152 3 2 ack 40 ------- 0 5.0 0.0 14 39
r 0.40476 3 5 tcp 1040 ------- 0 0.0 5.0 15 25
+ 0.40476 5 3 ack 40 ------- 0 5.0 0.0 15 42
- 0.40476 5 3 ack 40 ------- 0 5.0 0.0 15 42
r 0.405307 2 3 tcp 1040 ------- 0 0.0 5.0 17 28
+ 0.405307 3 5 tcp 1040 ------- 0 0.0 5.0 17 28
- 0.405307 3 5 tcp 1040 ------- 0 0.0 5.0 17 28
r 0.405853 0 2 tcp 1040 ------- 0 0.0 5.0 19 31
+ 0.405853 2 3 tcp 1040 ------- 0 0.0 5.0 19 31
- 0.405853 2 3 tcp 1040 ------- 0 0.0 5.0 19 31
- 0.4064 0 2 tcp 1040 ------- 0 0.0 5.0 21 34
r 0.4064 2 0 ack 40 ------- 0 5.0 0.0 13 36
+ 0.4064 0 2 tcp 1040 ------- 0 0.0 5.0 27 43
+ 0.4064 0 2 tcp 1040 ------- 0 0.0 5.0 28 44
r 0.406733 3 2 ack 40 ------- 0 5.0 0.0 14 39
+ 0.406733 2 0 ack 40 ------- 0 5.0 0.0 14 39
- 0.406733 2 0 ack 40 ------- 0 5.0 0.0 14 39
r 0.409973 5 3 ack 40 ------- 0 5.0 0.0 15 42
+ 0.409973 3 2 ack 40 ------- 0 5.0 0.0 15 42
- 0.409973 3 2 ack 40 ------- 0 5.0 0.0 15 42
r 0.410307 3 5 tcp 1040 ------- 0 0.0 5.0 16 26
+ 0.410307 5 3 ack 40 ------- 0 5.0 0.0 16 45
- 0.410307 5 3 ack 40 ------- 0 5.0 0.0 16 45
r 0.410853 2 3 tcp 1040 ------- 0 0.0 5.0 18 29
+ 0.410853 3 5 tcp 1040 ------- 0 0.0 5.0 18 29
- 0.410853 3 5 tcp 1040 ------- 0 0.0 5.0 18 29
r 0.4114 0 2 tcp 1040 ------- 0 0.0 5.0 20 32
+ 0.4114 2 3 tcp 1040 ------- 0 0.0 5.0 20 32
- 0.4114 2 3 tcp 1040 ------- 0 0.0 5.0 20 32
- 0.411947 0 2 tcp 1040 ------- 0 0.0 5.0 22 35
r 0.411947 2 0 ack 40 ------- 0 5.0 0.0 14 39
+ 0.411947 0 2 tcp 1040 ------- 0 0.0 5.0 29 46
+ 0.411947 0 2 tcp 1040 ------- 0 0.0 5.0 30 47
r 0.415187 3 2 ack 40 ------- 0 5.0 0.0 15 42
+ 0.415187 2 0 ack 40 ------- 0 5.0 0.0 15 42
- 0.415187 2 0 ack 40 ------- 0 5.0 0.0 15 42
r 0.41552 5 3 ack 40 ------- 0 5.0 0.0 16 45
+ 0.41552 3 2 ack 40 ------- 0 5.0 0.0 16 45
- 0.41552 3 2 ack 40 ------- 0 5.0 0.0 16 45
r 0.415853 3 5 tcp 1040 ------- 0 0.0 5.0 17 28
+ 0.415853 5 3 ack 40 ------- 0 5.0 0.0 17 48
- 0.415853 5 3 ack 40 ------- 0 5.0 0.0 17 48
r 0.4164 2 3 tcp 1040 ------- 0 0.0 5.0 19 31
+ 0.4164 3 5 tcp 1040 ------- 0 0.0 5.0 19 31
- 0.4164 3 5 tcp 1040 ------- 0 0.0 5.0 19 31
r 0.416947 0 2 tcp 1040 ------- 0 0.0 5.0 21 34
+ 0.416947 2 3 tcp 1040 ------- 0 0.0 5.0 21 34
- 0.416947 2 3 tcp 1040 ------- 0 0.0 5.0 21 34
- 0.417493 0 2 tcp 1040 ------- 0 0.0 5.0 23 37
r 0.4204 2 0 ack 40 ------- 0 5.0 0.0 15 42
+ 0.4204 0 2 tcp 1040 ------- 0 0.0 5.0 31 49
+ 0.4204 0 2 tcp 1040 ------- 0 0.0 5.0 32 50
r 0.420733 3 2 ack 40 ------- 0 5.0 0.0 16 45
+ 0.420733 2 0 ack 40 ------- 0 5.0 0.0 16 45
- 0.420733 2 0 ack 40 ------- 0 5.0 0.0 16 45
r 0.421067 5 3 ack 40 ------- 0 5.0 0.0 17 48
+ 0.421067 3 2 ack 40 ------- 0 5.0 0.0 17 48
- 0.421067 3 2 ack 40 ------- 0 5.0 0.0 17 48
r 0.4214 3 5 tcp 1040 ------- 0 0.0 5.0 18 29
+ 0.4214 5 3 ack 40 ------- 0 5.0 0.0 18 51
- 0.4214 5 3 ack 40 ------- 0 5.0 0.0 18 51
r 0.421947 2 3 tcp 1040 ------- 0 0.0 5.0 20 32
+ 0.421947 3 5 tcp 1040 ------- 0 0.0 5.0 20 32
- 0.421947 3 5 tcp 1040 ------- 0 0.0 5.0 20 32
r 0.422493 0 2 tcp 1040 ------- 0 0.0 5.0 22 35
+ 0.422493 2 3 tcp 1040 ------- 0 0.0 5.0 22 35
- 0.422493 2 3 tcp 1040 ------- 0 0.0 5.0 22 35
- 0.42304 0 2 tcp 1040 ------- 0 0.0 5.0 24 38
r 0.425947 2 0 ack 40 ------- 0 5.0 0.0 16 45
+ 0.425947 0 2 tcp 1040 ------- 0 0.0 5.0 33 52
+ 0.425947 0 2 tcp 1040 ------- 0 0.0 5.0 34 53
r 0.42628 3 2 ack 40 ------- 0 5.0 0.0 17 48
+ 0.42628 2 0 ack 40 ------- 0 5.0 0.0 17 48
- 0.42628 2 0 ack 40 ------- 0 5.0 0.0 17 48
r 0.426613 5 3 ack 40 ------- 0 5.0 0.0 18 51
+ 0.426613 3 2 ack 40 ------- 0 5.0 0.0 18 51
- 0.426613 3 2 ack 40 ------- 0 5.0 0.0 18 51
r 0.426947 3 5 tcp 1040 ------- 0 0.0 5.0 19 31
+ 0.426947 5 3 ack 40 ------- 0 5.0 0.0 19 54
- 0.426947 5 3 ack 40 ------- 0 5.0 0.0 19 54
r 0.427493 2 3 tcp 1040 ------- 0 0.0 5.0 21 34
+ 0.427493 3 5 tcp 1040 ------- 0 0.0 5.0 21 34
- 0.427493 3 5 tcp 1040 ------- 0 0.0 5.0 21 34
r 0.42804 0 2 tcp 1040 ------- 0 0.0 5.0 23 37
+ 0.42804 2 3 tcp 1040 ------- 0 0.0 5.0 23 37
- 0.42804 2 3 tcp 1040 ------- 0 0.0 5.0 23 37
- 0.428587 0 2 tcp 1040 ------- 0 0.0 5.0 25 40
r 0.431493 2 0 ack 40 ------- 0 5.0 0.0 17 48
+ 0.431493 0 2 tcp 1040 ------- 0 0.0 5.0 35 55
+ 0.431493 0 2 tcp 1040 ------- 0 0.0 5.0 36 56
r 0.431827 3 2 ack 40 ------- 0 5.0 0.0 18 51
+ 0.431827 2 0 ack 40 ------- 0 5.0 0.0 18 51
- 0.431827 2 0 ack 40 ------- 0 5.0 0.0 18 51
r 0.43216 5 3 ack 40 ------- 0 5.0 0.0 19 54
+ 0.43216 3 2 ack 40 ------- 0 5.0 0.0 19 54
- 0.43216 3 2 ack 40 ------- 0 5.0 0.0 19 54
r 0.432493 3 5 tcp 1040 ------- 0 0.0 5.0 20 32
+ 0.432493 5 3 ack 40 ------- 0 5.0 0.0 20 57
- 0.432493 5 3 ack 40 ------- 0 5.0 0.0 20 57
r 0.43304 2 3 tcp 1040 ------- 0 0.0 5.0 22 35
+ 0.43304 3 5 tcp 1040 ------- 0 0.0 5.0 22 35
- 0.43304 3 5 tcp 1040 ------- 0 0.0 5.0 22 35
r 0.433587 0 2 tcp 1040 ------- 0 0.0 5.0 24 38
+ 0.433587 2 3 tcp 1040 ------- 0 0.0 5.0 24 38
- 0.433587 2 3 tcp 1040 ------- 0 0.0 5.0 24 38
- 0.434133 0 2 tcp 1040 ------- 0 0.0 5.0 26 41
r 0.43704 2 0 ack 40 ------- 0 5.0 0.0 18 51
+ 0.43704 0 2 tcp 1040 ------- 0 0.0 5.0 37 58
+ 0.43704 0 2 tcp 1040 ------- 0 0.0 5.0 38 59
r 0.437373 3 2 ack 40 ------- 0 5.0 0.0 19 54
+ 0.437373 2 0 ack 40 ------- 0 5.0 0.0 19 54
- 0.437373 2 0 ack 40 ------- 0 5.0 0.0 19 54
r 0.437707 5 3 ack 40 ------- 0 5.0 0.0 20 57
+ 0.437707 3 2 ack 40 ------- 0 5.0 0.0 20 57
- 0.437707 3 2 ack 40 ------- 0 5.0 0.0 20 57
r 0.43804 3 5 tcp 1040 ------- 0 0.0 5.0 21 34
+ 0.43804 5 3 ack 40 ------- 0 5.0 0.0 21 60
- 0.43804 5 3 ack 40 ------- 0 5.0 0.0 21 60
r 0.438587 2 3 tcp 1040 ------- 0 0.0 5.0 23 37
+ 0.438587 3 5 tcp 1040 ------- 0 0.0 5.0 23 37
- 0.438587 3 5 tcp 1040 ------- 0 0.0 5.0 23 37
r 0.439133 0 2 tcp 1040 ------- 0 0.0 5.0 25 40
+ 0.439133 2 3 tcp 1040 ------- 0 0.0 5.0 25 40
- 0.439133 2 3 tcp 1040 ------- 0 0.0 5.0 25 40
- 0.43968 0 2 tcp 1040 ------- 0 0.0 5.0 27 43
r 0.442587 2 0 ack 40 ------- 0 5.0 0.0 19 54
+ 0.442587 0 2 tcp 1040 ------- 0 0.0 5.0 39 61
r 0.44292 3 2 ack 40 ------- 0 5.0 0.0 20 57
+ 0.44292 2 0 ack 40 ------- 0 5.0 0.0 20 57
- 0.44292 2 0 ack 40 ------- 0 5.0 0.0 20 57
r 0.443253 5 3 ack 40 ------- 0 5.0 0.0 21 60
+ 0.443253 3 2 ack 40 ------- 0 5.0 0.0 21 60
- 0.443253 3 2 ack 40 ------- 0 5.0 0.0 21 60
r 0.443587 3 5 tcp 1040 ------- 0 0.0 5.0 22 35
+ 0.443587 5 3 ack 40 ------- 0 5.0 0.0 22 62
- 0.443587 5 3 ack 40 ------- 0 5.0 0.0 22 62
r 0.444133 2 3 tcp 1040 ------- 0 0.0 5.0 24 38
+ 0.444133 3 5 tcp 1040 ------- 0 0.0 5.0 24 38
- 0.444133 3 5 tcp 1040 ------- 0 0.0 5.0 24 38
r 0.44468 0 2 tcp 1040 ------- 0 0.0 5.0 26 41
+ 0.44468 2 3 tcp 1040 ------- 0 0.0 5.0 26 41
- 0.44468 2 3 tcp 1040 ------- 0 0.0 5.0 26 41
- 0.445227 0 2 tcp 1040 ------- 0 0.0 5.0 28 44
r 0.448133 2 0 ack 40 ------- 0 5.0 0.0 20 57
+ 0.448133 0 2 tcp 1040 ------- 0 0.0 5.0 40 63
r 0.448467 3 2 ack 40 ------- 0 5.0 0.0 21 60
+ 0.448467 2 0 ack 40 ------- 0 5.0 0.0 21 60
- 0.448467 2 0 ack 40 ------- 0 5.0 0.0 21 60
r 0.4488 5 3 ack 40 ------- 0 5.0 0.0 22 62
+ 0.4488 3 2 ack 40 ------- 0 5.0 0.0 22 62
- 0.4488 3 2 ack 40 ------- 0 5.0 0.0 22 62
r 0.449133 3 5 tcp 1040 ------- 0 0.0 5.0 23 37
+ 0.449133 5 3 ack 40 ------- 0 5.0 0.0 23 64
- 0.449133 5 3 ack 40 ------- 0 5.0 0.0 23 64
r 0.44968 2 3 tcp 1040 ------- 0 0.0 5.0 25 40
+ 0.44968 3 5 tcp 1040 ------- 0 0.0 5.0 25 40
- 0.44968 3 5 tcp 1040 ------- 0 0.0 5.0 25 40
r 0.450227 0 2 tcp 1040 ------- 0 0.0 5.0 27 43
+ 0.450227 2 3 tcp 1040 ------- 0 0.0 5.0 27 43
- 0.450227 2 3 tcp 1040 ------- 0 0.0 5.0 27 43
- 0.450773 0 2 tcp 1040 ------- 0 0.0 5.0 29 46
r 0.45368 2 0 ack 40 ------- 0 5.0 0.0 21 60
+ 0.45368 0 2 tcp 1040 ------- 0 0.0 5.0 41 65
r 0.454013 3 2 ack 40 ------- 0 5.0 0.0 22 62
+ 0.454013 2 0 ack 40 ------- 0 5.0 0.0 22 62
- 0.454013 2 0 ack 40 ------- 0 5.0 0.0 22 62
r 0.454347 5 3 ack 40 ------- 0 5.0 0.0 23 64
+ 0.454347 3 2 ack 40 ------- 0 5.0 0.0 23 64
- 0.454347 3 2 ack 40 ------- 0 5.0 0.0 23 64
r 0.45468 3 5 tcp 1040 ------- 0 0.0 5.0 24 38
+ 0.45468 5 3 ack 40 ------- 0 5.0 0.0 24 66
- 0.45468 5 3 ack 40 ------- 0 5.0 0.0 24 66
r 0.455227 2 3 tcp 1040 ------- 0 0.0 5.0 26 41
+ 0.455227 3 5 tcp 1040 ------- 0 0.0 5.0 26 41
- 0.455227 3 5 tcp 1040 ------- 0 0.0 5.0 26 41
r 0.455773 0 2 tcp 1040 ------- 0 0.0 5.0 28 44
+ 0.455773 2 3 tcp 1040 ------- 0 0.0 5.0 28 44
- 0.455773 2 3 tcp 1040 ------- 0 0.0 5.0 28 44
- 0.45632 0 2 tcp 1040 ------- 0 0.0 5.0 30 47
r 0.459227 2 0 ack 40 ------- 0 5.0 0.0 22 62
+ 0.459227 0 2 tcp 1040 ------- 0 0.0 5.0 42 67
r 0.45956 3 2 ack 40 ------- 0 5.0 0.0 23 64
+ 0.45956 2 0 ack 40 ------- 0 5.0 0.0 23 64
- 0.45956 2 0 ack 40 ------- 0 5.0 0.0 23 64
r 0.459893 5 3 ack 40 ------- 0 5.0 0.0 24 66
+ 0.459893 3 2 ack 40 ------- 0 5.0 0.0 24 66
- 0.459893 3 2 ack 40 ------- 0 5.0 0.0 24 66
r 0.460227 3 5 tcp 1040 ------- 0 0.0 5.0 25 40
+ 0.460227 5 3 ack 40 ------- 0 5.0 0.0 25 68
- 0.460227 5 3 ack 40 ------- 0 5.0 0.0 25 68
r 0.460773 2 3 tcp 1040 ------- 0 0.0 5.0 27 43
+ 0.460773 3 5 tcp 1040 ------- 0 0.0 5.0 27 43
- 0.460773 3 5 tcp 1040 ------- 0 0.0 5.0 27 43
r 0.46132 0 2 tcp 1040 ------- 0 0.0 5.0 29 46
+ 0.46132 2 3 tcp 1040 ------- 0 0.0 5.0 29 46
- 0.46132 2 3 tcp 1040 ------- 0 0.0 5.0 29 46
- 0.461867 0 2 tcp 1040 ------- 0 0.0 5.0 31 49
r 0.464773 2 0 ack 40 ------- 0 5.0 0.0 23 64
+ 0.464773 0 2 tcp 1040 ------- 0 0.0 5.0 43 69
r 0.465107 3 2 ack 40 ------- 0 5.0 0.0 24 66
+ 0.465107 2 0 ack 40 ------- 0 5.0 0.0 24 66
- 0.465107 2 0 ack 40 ------- 0 5.0 0.0 24 66
r 0.46544 5 3 ack 40 ------- 0 5.0 0.0 25 68
+ 0.46544 3 2 ack 40 ------- 0 5.0 0.0 25 68
- 0.46544 3 2 ack 40 ------- 0 5.0 0.0 25 68
r 0.465773 3 5 tcp 1040 ------- 0 0.0 5.0 26 41
+ 0.465773 5 3 ack 40 ------- 0 5.0 0.0 26 70
- 0.465773 5 3 ack 40 ------- 0 5.0 0.0 26 70
r 0.46632 2 3 tcp 1040 ------- 0 0.0 5.0 28 44
+ 0.46632 3 5 tcp 1040 ------- 0 0.0 5.0 28 44
- 0.46632 3 5 tcp 1040 ------- 0 0.0 5.0 28 44
r 0.466867 0 2 tcp 1040 ------- 0 0.0 5.0 30 47
+ 0.466867 2 3 tcp 1040 ------- 0 0.0 5.0 30 47
- 0.466867 2 3 tcp 1040 ------- 0 0.0 5.0 30 47
- 0.467413 0 2 tcp 1040 ------- 0 0.0 5.0 32 50
r 0.47032 2 0 ack 40 ------- 0 5.0 0.0 24 66
+ 0.47032 0 2 tcp 1040 ------- 0 0.0 5.0 44 71
r 0.470653 3 2 ack 40 ------- 0 5.0 0.0 25 68
+ 0.470653 2 0 ack 40 ------- 0 5.0 0.0 25 68
- 0.470653 2 0 ack 40 ------- 0 5.0 0.0 25 68
r 0.470987 5 3 ack 40 ------- 0 5.0 0.0 26 70
+ 0.470987 3 2 ack 40 ------- 0 5.0 0.0 26 70
- 0.470987 3 2 ack 40 ------- 0 5.0 0.0 26 70
r 0.47132 3 5 tcp 1040 ------- 0 0.0 5.0 27 43
+ 0.47132 5 3 ack 40 ------- 0 5.0 0.0 27 72
- 0.47132 5 3 ack 40 ------- 0 5.0 0.0 27 72
r 0.471867 2 3 tcp 1040 ------- 0 0.0 5.0 29 46
+ 0.471867 3 5 tcp 1040 ------- 0 0.0 5.0 29 46
- 0.471867 3 5 tcp 1040 ------- 0 0.0 5.0 29 46
r 0.472413 0 2 tcp 1040 ------- 0 0.0 5.0 31 49
+ 0.472413 2 3 tcp 1040 ------- 0 0.0 5.0 31 49
- 0.472413 2 3 tcp 1040 ------- 0 0.0 5.0 31 49
- 0.47296 0 2 tcp 1040 ------- 0 0.0 5.0 33 52
r 0.475867 2 0 ack 40 ------- 0 5.0 0.0 25 68
+ 0.475867 0 2 tcp 1040 ------- 0 0.0 5.0 45 73
r 0.4762 3 2 ack 40 ------- 0 5.0 0.0 26 70
+ 0.4762 2 0 ack 40 ------- 0 5.0 0.0 26 70
- 0.4762 2 0 ack 40 ------- 0 5.0 0.0 26 70
r 0.476533 5 3 ack 40 ------- 0 5.0 0.0 27 72
+ 0.476533 3 2 ack 40 ------- 0 5.0 0.0 27 72
- 0.476533 3 2 ack 40 ------- 0 5.0 0.0 27 72
r 0.476867 3 5 tcp 1040 ------- 0 0.0 5.0 28 44
+ 0.476867 5 3 ack 40 ------- 0 5.0 0.0 28 74
- 0.476867 5 3 ack 40 ------- 0 5.0 0.0 28 74
r 0.477413 2 3 tcp 1040 ------- 0 0.0 5.0 30 47
+ 0.477413 3 5 tcp 1040 ------- 0 0.0 5.0 30 47
- 0.477413 3 5 tcp 1040 ------- 0 0.0 5.0 30 47
r 0.47796 0 2 tcp 1040 ------- 0 0.0 5.0 32 50
+ 0.47796 2 3 tcp 1040 ------- 0 0.0 5.0 32 50
- 0.47796 2 3 tcp 1040 ------- 0 0.0 5.0 32 50
- 0.478507 0 2 tcp 1040 ------- 0 0.0 5.0 34 53
r 0.481413 2 0 ack 40 ------- 0 5.0 0.0 26 70
+ 0.481413 0 2 tcp 1040 ------- 0 0.0 5.0 46 75
r 0.481747 3 2 ack 40 ------- 0 5.0 0.0 27 72
+ 0.481747 2 0 ack 40 ------- 0 5.0 0.0 27 72
- 0.481747 2 0 ack 40 ------- 0 5.0 0.0 27 72
r 0.48208 5 3 ack 40 ------- 0 5.0 0.0 28 74
+ 0.48208 3 2 ack 40 ------- 0 5.0 0.0 28 74
- 0.48208 3 2 ack 40 ------- 0 5.0 0.0 28 74
r 0.482413 3 5 tcp 1040 ------- 0 0.0 5.0 29 46
+ 0.482413 5 3 ack 40 ------- 0 5.0 0.0 29 76
- 0.482413 5 3 ack 40 ------- 0 5.0 0.0 29 76
r 0.48296 2 3 tcp 1040 ------- 0 0.0 5.0 31 49
+ 0.48296 3 5 tcp 1040 ------- 0 0.0 5.0 31 49
- 0.48296 3 5 tcp 1040 ------- 0 0.0 5.0 31 49
r 0.483507 0 2 tcp 1040 ------- 0 0.0 5.0 33 52
+ 0.483507 2 3 tcp 1040 ------- 0 0.0 5.0 33 52
- 0.483507 2 3 tcp 1040 ------- 0 0.0 5.0 33 52
- 0.484053 0 2 tcp 1040 ------- 0 0.0 5.0 35 55
r 0.48696 2 0 ack 40 ------- 0 5.0 0.0 27 72
+ 0.48696 0 2 tcp 1040 ------- 0 0.0 5.0 47 77
r 0.487293 3 2 ack 40 ------- 0 5.0 0.0 28 74
+ 0.487293 2 0 ack 40 ------- 0 5.0 0.0 28 74
- 0.487293 2 0 ack 40 ------- 0 5.0 0.0 28 74
r 0.487627 5 3 ack 40 ------- 0 5.0 0.0 29 76
+ 0.487627 3 2 ack 40 ------- 0 5.0 0.0 29 76
- 0.487627 3 2 ack 40 ------- 0 5.0 0.0 29 76
r 0.48796 3 5 tcp 1040 ------- 0 0.0 5.0 30 47
+ 0.48796 5 3 ack 40 ------- 0 5.0 0.0 30 78
- 0.48796 5 3 ack 40 ------- 0 5.0 0.0 30 78
r 0.488507 2 3 tcp 1040 ------- 0 0.0 5.0 32 50
+ 0.488507 3 5 tcp 1040 ------- 0 0.0 5.0 32 50
- 0.488507 3 5 tcp 1040 ------- 0 0.0 5.0 32 50
r 0.489053 0 2 tcp 1040 ------- 0 0.0 5.0 34 53
+ 0.489053 2 3 tcp 1040 ------- 0 0.0 5.0 34 53
- 0.489053 2 3 tcp 1040 ------- 0 0.0 5.0 34 53
- 0.4896 0 2 tcp 1040 ------- 0 0.0 5.0 36 56
r 0.492507 2 0 ack 40 ------- 0 5.0 0.0 28 74
+ 0.492507 0 2 tcp 1040 ------- 0 0.0 5.0 48 79
r 0.49284 3 2 ack 40 ------- 0 5.0 0.0 29 76
+ 0.49284 2 0 ack 40 ------- 0 5.0 0.0 29 76
- 0.49284 2 0 ack 40 ------- 0 5.0 0.0 29 76
r 0.493173 5 3 ack 40 ------- 0 5.0 0.0 30 78
+ 0.493173 3 2 ack 40 ------- 0 5.0 0.0 30 78
- 0.493173 3 2 ack 40 ------- 0 5.0 0.0 30 78
r 0.493507 3 5 tcp 1040 ------- 0 0.0 5.0 31 49
+ 0.493507 5 3 ack 40 ------- 0 5.0 0.0 31 80
- 0.493507 5 3 ack 40 ------- 0 5.0 0.0 31 80
r 0.494053 2 3 tcp 1040 ------- 0 0.0 5.0 33 52
+ 0.494053 3 5 tcp 1040 ------- 0 0.0 5.0 33 52
- 0.494053 3 5 tcp 1040 ------- 0 0.0 5.0 33 52
r 0.4946 0 2 tcp 1040 ------- 0 0.0 5.0 35 55
+ 0.4946 2 3 tcp 1040 ------- 0 0.0 5.0 35 55
- 0.4946 2 3 tcp 1040 ------- 0 0.0 5.0 35 55
- 0.495147 0 2 tcp 1040 ------- 0 0.0 5.0 37 58
r 0.498053 2 0 ack 40 ------- 0 5.0 0.0 29 76
+ 0.498053 0 2 tcp 1040 ------- 0 0.0 5.0 49 81
r 0.498387 3 2 ack 40 ------- 0 5.0 0.0 30 78
+ 0.498387 2 0 ack 40 ------- 0 5.0 0.0 30 78
- 0.498387 2 0 ack 40 ------- 0 5.0 0.0 30 78
r 0.49872 5 3 ack 40 ------- 0 5.0 0.0 31 80
+ 0.49872 3 2 ack 40 ------- 0 5.0 0.0 31 80
- 0.49872 3 2 ack 40 ------- 0 5.0 0.0 31 80
r 0.499053 3 5 tcp 1040 ------- 0 0.0 5.0 32 50
+ 0.499053 5 3 ack 40 ------- 0 5.0 0.0 32 82
- 0.499053 5 3 ack 40 ------- 0 5.0 0.0 32 82
r 0.4996 2 3 tcp 1040 ------- 0 0.0 5.0 34 53
+ 0.4996 3 5 tcp 1040 ------- 0 0.0 5.0 34 53
- 0.4996 3 5 tcp 1040 ------- 0 0.0 5.0 34 53
r 0.500147 0 2 tcp 1040 ------- 0 0.0 5.0 36 56
+ 0.500147 2 3 tcp 1040 ------- 0 0.0 5.0 36 56
- 0.500147 2 3 tcp 1040 ------- 0 0.0 5.0 36 56
- 0.500693 0 2 tcp 1040 ------- 0 0.0 5.0 38 59
r 0.5036 2 0 ack 40 ------- 0 5.0 0.0 30 78
+ 0.5036 0 2 tcp 1040 ------- 0 0.0 5.0 50 83
r 0.503933 3 2 ack 40 ------- 0 5.0 0.0 31 80
+ 0.503933 2 0 ack 40 ------- 0 5.0 0.0 31 80
- 0.503933 2 0 ack 40 ------- 0 5.0 0.0 31 80
r 0.504267 5 3 ack 40 ------- 0 5.0 0.0 32 82
+ 0.504267 3 2 ack 40 ------- 0 5.0 0.0 32 82
- 0.504267 3 2 ack 40 ------- 0 5.0 0.0 32 82
r 0.5046 3 5 tcp 1040 ------- 0 0.0 5.0 33 52
+ 0.5046 5 3 ack 40 ------- 0 5.0 0.0 33 84
- 0.5046 5 3 ack 40 ------- 0 5.0 0.0 33 84
r 0.505147 2 3 tcp 1040 ------- 0 0.0 5.0 35 55
+ 0.505147 3 5 tcp 1040 ------- 0 0.0 5.0 35 55
- 0.505147 3 5 tcp 1040 ------- 0 0.0 5.0 35 55
r 0.505693 0 2 tcp 1040 ------- 0 0.0 5.0 37 58
+ 0.505693 2 3 tcp 1040 ------- 0 0.0 5.0 37 58
- 0.505693 2 3 tcp 1040 ------- 0 0.0 5.0 37 58
- 0.50624 0 2 tcp 1040 ------- 0 0.0 5.0 39 61
r 0.509147 2 0 ack 40 ------- 0 5.0 0.0 31 80
+ 0.509147 0 2 tcp 1040 ------- 0 0.0 5.0 51 85
r 0.50948 3 2 ack 40 ------- 0 5.0 0.0 32 82
+ 0.50948 2 0 ack 40 ------- 0 5.0 0.0 32 82
- 0.50948 2 0 ack 40 ------- 0 5.0 0.0 32 82
r 0.509813 5 3 ack 40 ------- 0 5.0 0.0 33 84
+ 0.509813 3 2 ack 40 ------- 0 5.0 0.0 33 84
- 0.509813 3 2 ack 40 ------- 0 5.0 0.0 33 84